V -t * -v 1.0a5 -a 0
A -t * -n 1 -p 0 -o 0x7fffffff -c 30 -a 1
A -t * -h 1 -m 1073741823 -s 0
n -t * -a 0 -s 0 -S UP -v circle -c black -i black
n -t * -a 1 -s 1 -S UP -v circle -c black -i black
n -t * -a 2 -s 2 -S UP -v circle -c black -i black
n -t * -a 3 -s 3 -S UP -v circle -c black -i black
l -t * -s 0 -d 2 -S UP -r 5000000 -D 0.002 -c black
l -t * -s 1 -d 2 -S UP -r 5000000 -D 0.002 -c black
l -t * -s 2 -d 3 -S UP -r 1500000 -D 0.01 -c black
+ -t 1 -s 0 -d 2 -p cbr -e 210 -c 0 -i 0 -a 0 -x {0.0 3.0 0 ------- null}
- -t 1 -s 0 -d 2 -p cbr -e 210 -c 0 -i 0 -a 0 -x {0.0 3.0 0 ------- null}
h -t 1 -s 0 -d 2 -p cbr -e 210 -c 0 -i 0 -a 0 -x {0.0 3.0 -1 ------- null}
r -t 1.002336 -s 0 -d 2 -p cbr -e 210 -c 0 -i 0 -a 0 -x {0.0 3.0 0 ------- null}
+ -t 1.002336 -s 2 -d 3 -p cbr -e 210 -c 0 -i 0 -a 0 -x {0.0 3.0 0 ------- null}
- -t 1.002336 -s 2 -d 3 -p cbr -e 210 -c 0 -i 0 -a 0 -x {0.0 3.0 0 ------- null}
h -t 1.002336 -s 2 -d 3 -p cbr -e 210 -c 0 -i 0 -a 0 -x {0.0 3.0 -1 ------- null}
+ -t 1.00375 -s 0 -d 2 -p cbr -e 210 -c 0 -i 1 -a 0 -x {0.0 3.0 1 ------- null}
- -t 1.00375 -s 0 -d 2 -p cbr -e 210 -c 0 -i 1 -a 0 -x {0.0 3.0 1 ------- null}
h -t 1.00375 -s 0 -d 2 -p cbr -e 210 -c 0 -i 1 -a 0 -x {0.0 3.0 -1 ------- null}
r -t 1.006086 -s 0 -d 2 -p cbr -e 210 -c 0 -i 1 -a 0 -x {0.0 3.0 1 ------- null}
+ -t 1.006086 -s 2 -d 3 -p cbr -e 210 -c 0 -i 1 -a 0 -x {0.0 3.0 1 ------- null}
- -t 1.006086 -s 2 -d 3 -p cbr -e 210 -c 0 -i 1 -a 0 -x {0.0 3.0 1 ------- null}
h -t 1.006086 -s 2 -d 3 -p cbr -e 210 -c 0 -i 1 -a 0 -x {0.0 3.0 -1 ------- null}
+ -t 1.0075 -s 0 -d 2 -p cbr -e 210 -c 0 -i 2 -a 0 -x {0.0 3.0 2 ------- null}
- -t 1.0075 -s 0 -d 2 -p cbr -e 210 -c 0 -i 2 -a 0 -x {0.0 3.0 2 ------- null}
h -t 1.0075 -s 0 -d 2 -p cbr -e 210 -c 0 -i 2 -a 0 -x {0.0 3.0 -1 ------- null}
r -t 1.009836 -s 0 -d 2 -p cbr -e 210 -c 0 -i 2 -a 0 -x {0.0 3.0 2 ------- null}
+ -t 1.009836 -s 2 -d 3 -p cbr -e 210 -c 0 -i 2 -a 0 -x {0.0 3.0 2 ------- null}
- -t 1.009836 -s 2 -d 3 -p cbr -e 210 -c 0 -i 2 -a 0 -x {0.0 3.0 2 ------- null}
h -t 1.009836 -s 2 -d 3 -p cbr -e 210 -c 0 -i 2 -a 0 -x {0.0 3.0 -1 ------- null}
+ -t 1.01125 -s 0 -d 2 -p cbr -e 210 -c 0 -i 3 -a 0 -x {0.0 3.0 3 ------- null}
- -t 1.01125 -s 0 -d 2 -p cbr -e 210 -c 0 -i 3 -a 0 -x {0.0 3.0 3 ------- null}
h -t 1.01125 -s 0 -d 2 -p cbr -e 210 -c 0 -i 3 -a 0 -x {0.0 3.0 -1 ------- null}
r -t 1.013456 -s 2 -d 3 -p cbr -e 210 -c 0 -i 0 -a 0 -x {0.0 3.0 0 ------- null}
r -t 1.013586 -s 0 -d 2 -p cbr -e 210 -c 0 -i 3 -a 0 -x {0.0 3.0 3 ------- null}
+ -t 1.013586 -s 2 -d 3 -p cbr -e 210 -c 0 -i 3 -a 0 -x {0.0 3.0 3 ------- null}
- -t 1.013586 -s 2 -d 3 -p cbr -e 210 -c 0 -i 3 -a 0 -x {0.0 3.0 3 ------- null}
h -t 1.013586 -s 2 -d 3 -p cbr -e 210 -c 0 -i 3 -a 0 -x {0.0 3.0 -1 ------- null}
+ -t 1.015 -s 0 -d 2 -p cbr -e 210 -c 0 -i 4 -a 0 -x {0.0 3.0 4 ------- null}
- -t 1.015 -s 0 -d 2 -p cbr -e 210 -c 0 -i 4 -a 0 -x {0.0 3.0 4 ------- null}
h -t 1.015 -s 0 -d 2 -p cbr -e 210 -c 0 -i 4 -a 0 -x {0.0 3.0 -1 ------- null}
r -t 1.017206 -s 2 -d 3 -p cbr -e 210 -c 0 -i 1 -a 0 -x {0.0 3.0 1 ------- null}
r -t 1.017336 -s 0 -d 2 -p cbr -e 210 -c 0 -i 4 -a 0 -x {0.0 3.0 4 ------- null}
+ -t 1.017336 -s 2 -d 3 -p cbr -e 210 -c 0 -i 4 -a 0 -x {0.0 3.0 4 ------- null}
- -t 1.017336 -s 2 -d 3 -p cbr -e 210 -c 0 -i 4 -a 0 -x {0.0 3.0 4 ------- null}
h -t 1.017336 -s 2 -d 3 -p cbr -e 210 -c 0 -i 4 -a 0 -x {0.0 3.0 -1 ------- null}
+ -t 1.01875 -s 0 -d 2 -p cbr -e 210 -c 0 -i 5 -a 0 -x {0.0 3.0 5 ------- null}
- -t 1.01875 -s 0 -d 2 -p cbr -e 210 -c 0 -i 5 -a 0 -x {0.0 3.0 5 ------- null}
h -t 1.01875 -s 0 -d 2 -p cbr -e 210 -c 0 -i 5 -a 0 -x {0.0 3.0 -1 ------- null}
r -t 1.020956 -s 2 -d 3 -p cbr -e 210 -c 0 -i 2 -a 0 -x {0.0 3.0 2 ------- null}
r -t 1.021086 -s 0 -d 2 -p cbr -e 210 -c 0 -i 5 -a 0 -x {0.0 3.0 5 ------- null}
+ -t 1.021086 -s 2 -d 3 -p cbr -e 210 -c 0 -i 5 -a 0 -x {0.0 3.0 5 ------- null}
- -t 1.021086 -s 2 -d 3 -p cbr -e 210 -c 0 -i 5 -a 0 -x {0.0 3.0 5 ------- null}
h -t 1.021086 -s 2 -d 3 -p cbr -e 210 -c 0 -i 5 -a 0 -x {0.0 3.0 -1 ------- null}
+ -t 1.0225 -s 0 -d 2 -p cbr -e 210 -c 0 -i 6 -a 0 -x {0.0 3.0 6 ------- null}
- -t 1.0225 -s 0 -d 2 -p cbr -e 210 -c 0 -i 6 -a 0 -x {0.0 3.0 6 ------- null}
h -t 1.0225 -s 0 -d 2 -p cbr -e 210 -c 0 -i 6 -a 0 -x {0.0 3.0 -1 ------- null}
r -t 1.024706 -s 2 -d 3 -p cbr -e 210 -c 0 -i 3 -a 0 -x {0.0 3.0 3 ------- null}
r -t 1.024836 -s 0 -d 2 -p cbr -e 210 -c 0 -i 6 -a 0 -x {0.0 3.0 6 ------- null}
+ -t 1.024836 -s 2 -d 3 -p cbr -e 210 -c 0 -i 6 -a 0 -x {0.0 3.0 6 ------- null}
- -t 1.024836 -s 2 -d 3 -p cbr -e 210 -c 0 -i 6 -a 0 -x {0.0 3.0 6 ------- null}
h -t 1.024836 -s 2 -d 3 -p cbr -e 210 -c 0 -i 6 -a 0 -x {0.0 3.0 -1 ------- null}
+ -t 1.02625 -s 0 -d 2 -p cbr -e 210 -c 0 -i 7 -a 0 -x {0.0 3.0 7 ------- null}
- -t 1.02625 -s 0 -d 2 -p cbr -e 210 -c 0 -i 7 -a 0 -x {0.0 3.0 7 ------- null}
h -t 1.02625 -s 0 -d 2 -p cbr -e 210 -c 0 -i 7 -a 0 -x {0.0 3.0 -1 ------- null}
r -t 1.028456 -s 2 -d 3 -p cbr -e 210 -c 0 -i 4 -a 0 -x {0.0 3.0 4 ------- null}
r -t 1.028586 -s 0 -d 2 -p cbr -e 210 -c 0 -i 7 -a 0 -x {0.0 3.0 7 ------- null}
+ -t 1.028586 -s 2 -d 3 -p cbr -e 210 -c 0 -i 7 -a 0 -x {0.0 3.0 7 ------- null}
- -t 1.028586 -s 2 -d 3 -p cbr -e 210 -c 0 -i 7 -a 0 -x {0.0 3.0 7 ------- null}
h -t 1.028586 -s 2 -d 3 -p cbr -e 210 -c 0 -i 7 -a 0 -x {0.0 3.0 -1 ------- null}
+ -t 1.03 -s 0 -d 2 -p cbr -e 210 -c 0 -i 8 -a 0 -x {0.0 3.0 8 ------- null}
- -t 1.03 -s 0 -d 2 -p cbr -e 210 -c 0 -i 8 -a 0 -x {0.0 3.0 8 ------- null}
h -t 1.03 -s 0 -d 2 -p cbr -e 210 -c 0 -i 8 -a 0 -x {0.0 3.0 -1 ------- null}
r -t 1.032206 -s 2 -d 3 -p cbr -e 210 -c 0 -i 5 -a 0 -x {0.0 3.0 5 ------- null}
r -t 1.032336 -s 0 -d 2 -p cbr -e 210 -c 0 -i 8 -a 0 -x {0.0 3.0 8 ------- null}
+ -t 1.032336 -s 2 -d 3 -p cbr -e 210 -c 0 -i 8 -a 0 -x {0.0 3.0 8 ------- null}
- -t 1.032336 -s 2 -d 3 -p cbr -e 210 -c 0 -i 8 -a 0 -x {0.0 3.0 8 ------- null}
h -t 1.032336 -s 2 -d 3 -p cbr -e 210 -c 0 -i 8 -a 0 -x {0.0 3.0 -1 ------- null}
+ -t 1.03375 -s 0 -d 2 -p cbr -e 210 -c 0 -i 9 -a 0 -x {0.0 3.0 9 ------- null}
- -t 1.03375 -s 0 -d 2 -p cbr -e 210 -c 0 -i 9 -a 0 -x {0.0 3.0 9 ------- null}
h -t 1.03375 -s 0 -d 2 -p cbr -e 210 -c 0 -i 9 -a 0 -x {0.0 3.0 -1 ------- null}
r -t 1.035956 -s 2 -d 3 -p cbr -e 210 -c 0 -i 6 -a 0 -x {0.0 3.0 6 ------- null}
r -t 1.036086 -s 0 -d 2 -p cbr -e 210 -c 0 -i 9 -a 0 -x {0.0 3.0 9 ------- null}
+ -t 1.036086 -s 2 -d 3 -p cbr -e 210 -c 0 -i 9 -a 0 -x {0.0 3.0 9 ------- null}
- -t 1.036086 -s 2 -d 3 -p cbr -e 210 -c 0 -i 9 -a 0 -x {0.0 3.0 9 ------- null}
h -t 1.036086 -s 2 -d 3 -p cbr -e 210 -c 0 -i 9 -a 0 -x {0.0 3.0 -1 ------- null}
+ -t 1.0375 -s 0 -d 2 -p cbr -e 210 -c 0 -i 10 -a 0 -x {0.0 3.0 10 ------- null}
- -t 1.0375 -s 0 -d 2 -p cbr -e 210 -c 0 -i 10 -a 0 -x {0.0 3.0 10 ------- null}
h -t 1.0375 -s 0 -d 2 -p cbr -e 210 -c 0 -i 10 -a 0 -x {0.0 3.0 -1 ------- null}
r -t 1.039706 -s 2 -d 3 -p cbr -e 210 -c 0 -i 7 -a 0 -x {0.0 3.0 7 ------- null}
r -t 1.039836 -s 0 -d 2 -p cbr -e 210 -c 0 -i 10 -a 0 -x {0.0 3.0 10 ------- null}
+ -t 1.039836 -s 2 -d 3 -p cbr -e 210 -c 0 -i 10 -a 0 -x {0.0 3.0 10 ------- null}
- -t 1.039836 -s 2 -d 3 -p cbr -e 210 -c 0 -i 10 -a 0 -x {0.0 3.0 10 ------- null}
h -t 1.039836 -s 2 -d 3 -p cbr -e 210 -c 0 -i 10 -a 0 -x {0.0 3.0 -1 ------- null}
+ -t 1.04125 -s 0 -d 2 -p cbr -e 210 -c 0 -i 11 -a 0 -x {0.0 3.0 11 ------- null}
- -t 1.04125 -s 0 -d 2 -p cbr -e 210 -c 0 -i 11 -a 0 -x {0.0 3.0 11 ------- null}
h -t 1.04125 -s 0 -d 2 -p cbr -e 210 -c 0 -i 11 -a 0 -x {0.0 3.0 -1 ------- null}
r -t 1.043456 -s 2 -d 3 -p cbr -e 210 -c 0 -i 8 -a 0 -x {0.0 3.0 8 ------- null}
r -t 1.043586 -s 0 -d 2 -p cbr -e 210 -c 0 -i 11 -a 0 -x {0.0 3.0 11 ------- null}
+ -t 1.043586 -s 2 -d 3 -p cbr -e 210 -c 0 -i 11 -a 0 -x {0.0 3.0 11 ------- null}
- -t 1.043586 -s 2 -d 3 -p cbr -e 210 -c 0 -i 11 -a 0 -x {0.0 3.0 11 ------- null}
h -t 1.043586 -s 2 -d 3 -p cbr -e 210 -c 0 -i 11 -a 0 -x {0.0 3.0 -1 ------- null}
+ -t 1.045 -s 0 -d 2 -p cbr -e 210 -c 0 -i 12 -a 0 -x {0.0 3.0 12 ------- null}
- -t 1.045 -s 0 -d 2 -p cbr -e 210 -c 0 -i 12 -a 0 -x {0.0 3.0 12 ------- null}
h -t 1.045 -s 0 -d 2 -p cbr -e 210 -c 0 -i 12 -a 0 -x {0.0 3.0 -1 ------- null}
r -t 1.047206 -s 2 -d 3 -p cbr -e 210 -c 0 -i 9 -a 0 -x {0.0 3.0 9 ------- null}
r -t 1.047336 -s 0 -d 2 -p cbr -e 210 -c 0 -i 12 -a 0 -x {0.0 3.0 12 ------- null}
+ -t 1.047336 -s 2 -d 3 -p cbr -e 210 -c 0 -i 12 -a 0 -x {0.0 3.0 12 ------- null}
- -t 1.047336 -s 2 -d 3 -p cbr -e 210 -c 0 -i 12 -a 0 -x {0.0 3.0 12 ------- null}
h -t 1.047336 -s 2 -d 3 -p cbr -e 210 -c 0 -i 12 -a 0 -x {0.0 3.0 -1 ------- null}
+ -t 1.04875 -s 0 -d 2 -p cbr -e 210 -c 0 -i 13 -a 0 -x {0.0 3.0 13 ------- null}
- -t 1.04875 -s 0 -d 2 -p cbr -e 210 -c 0 -i 13 -a 0 -x {0.0 3.0 13 ------- null}
h -t 1.04875 -s 0 -d 2 -p cbr -e 210 -c 0 -i 13 -a 0 -x {0.0 3.0 -1 ------- null}
r -t 1.050956 -s 2 -d 3 -p cbr -e 210 -c 0 -i 10 -a 0 -x {0.0 3.0 10 ------- null}
r -t 1.051086 -s 0 -d 2 -p cbr -e 210 -c 0 -i 13 -a 0 -x {0.0 3.0 13 ------- null}
+ -t 1.051086 -s 2 -d 3 -p cbr -e 210 -c 0 -i 13 -a 0 -x {0.0 3.0 13 ------- null}
- -t 1.051086 -s 2 -d 3 -p cbr -e 210 -c 0 -i 13 -a 0 -x {0.0 3.0 13 ------- null}
h -t 1.051086 -s 2 -d 3 -p cbr -e 210 -c 0 -i 13 -a 0 -x {0.0 3.0 -1 ------- null}
+ -t 1.0525 -s 0 -d 2 -p cbr -e 210 -c 0 -i 14 -a 0 -x {0.0 3.0 14 ------- null}
- -t 1.0525 -s 0 -d 2 -p cbr -e 210 -c 0 -i 14 -a 0 -x {0.0 3.0 14 ------- null}
h -t 1.0525 -s 0 -d 2 -p cbr -e 210 -c 0 -i 14 -a 0 -x {0.0 3.0 -1 ------- null}
r -t 1.054706 -s 2 -d 3 -p cbr -e 210 -c 0 -i 11 -a 0 -x {0.0 3.0 11 ------- null}
r -t 1.054836 -s 0 -d 2 -p cbr -e 210 -c 0 -i 14 -a 0 -x {0.0 3.0 14 ------- null}
+ -t 1.054836 -s 2 -d 3 -p cbr -e 210 -c 0 -i 14 -a 0 -x {0.0 3.0 14 ------- null}
- -t 1.054836 -s 2 -d 3 -p cbr -e 210 -c 0 -i 14 -a 0 -x {0.0 3.0 14 ------- null}
h -t 1.054836 -s 2 -d 3 -p cbr -e 210 -c 0 -i 14 -a 0 -x {0.0 3.0 -1 ------- null}
+ -t 1.05625 -s 0 -d 2 -p cbr -e 210 -c 0 -i 15 -a 0 -x {0.0 3.0 15 ------- null}
- -t 1.05625 -s 0 -d 2 -p cbr -e 210 -c 0 -i 15 -a 0 -x {0.0 3.0 15 ------- null}
h -t 1.05625 -s 0 -d 2 -p cbr -e 210 -c 0 -i 15 -a 0 -x {0.0 3.0 -1 ------- null}
r -t 1.058456 -s 2 -d 3 -p cbr -e 210 -c 0 -i 12 -a 0 -x {0.0 3.0 12 ------- null}
r -t 1.058586 -s 0 -d 2 -p cbr -e 210 -c 0 -i 15 -a 0 -x {0.0 3.0 15 ------- null}
+ -t 1.058586 -s 2 -d 3 -p cbr -e 210 -c 0 -i 15 -a 0 -x {0.0 3.0 15 ------- null}
- -t 1.058586 -s 2 -d 3 -p cbr -e 210 -c 0 -i 15 -a 0 -x {0.0 3.0 15 ------- null}
h -t 1.058586 -s 2 -d 3 -p cbr -e 210 -c 0 -i 15 -a 0 -x {0.0 3.0 -1 ------- null}
+ -t 1.06 -s 0 -d 2 -p cbr -e 210 -c 0 -i 16 -a 0 -x {0.0 3.0 16 ------- null}
- -t 1.06 -s 0 -d 2 -p cbr -e 210 -c 0 -i 16 -a 0 -x {0.0 3.0 16 ------- null}
h -t 1.06 -s 0 -d 2 -p cbr -e 210 -c 0 -i 16 -a 0 -x {0.0 3.0 -1 ------- null}
r -t 1.062206 -s 2 -d 3 -p cbr -e 210 -c 0 -i 13 -a 0 -x {0.0 3.0 13 ------- null}
r -t 1.062336 -s 0 -d 2 -p cbr -e 210 -c 0 -i 16 -a 0 -x {0.0 3.0 16 ------- null}
+ -t 1.062336 -s 2 -d 3 -p cbr -e 210 -c 0 -i 16 -a 0 -x {0.0 3.0 16 ------- null}
- -t 1.062336 -s 2 -d 3 -p cbr -e 210 -c 0 -i 16 -a 0 -x {0.0 3.0 16 ------- null}
h -t 1.062336 -s 2 -d 3 -p cbr -e 210 -c 0 -i 16 -a 0 -x {0.0 3.0 -1 ------- null}
+ -t 1.06375 -s 0 -d 2 -p cbr -e 210 -c 0 -i 17 -a 0 -x {0.0 3.0 17 ------- null}
- -t 1.06375 -s 0 -d 2 -p cbr -e 210 -c 0 -i 17 -a 0 -x {0.0 3.0 17 ------- null}
h -t 1.06375 -s 0 -d 2 -p cbr -e 210 -c 0 -i 17 -a 0 -x {0.0 3.0 -1 ------- null}
r -t 1.065956 -s 2 -d 3 -p cbr -e 210 -c 0 -i 14 -a 0 -x {0.0 3.0 14 ------- null}
r -t 1.066086 -s 0 -d 2 -p cbr -e 210 -c 0 -i 17 -a 0 -x {0.0 3.0 17 ------- null}
+ -t 1.066086 -s 2 -d 3 -p cbr -e 210 -c 0 -i 17 -a 0 -x {0.0 3.0 17 ------- null}
- -t 1.066086 -s 2 -d 3 -p cbr -e 210 -c 0 -i 17 -a 0 -x {0.0 3.0 17 ------- null}
h -t 1.066086 -s 2 -d 3 -p cbr -e 210 -c 0 -i 17 -a 0 -x {0.0 3.0 -1 ------- null}
+ -t 1.0675 -s 0 -d 2 -p cbr -e 210 -c 0 -i 18 -a 0 -x {0.0 3.0 18 ------- null}
- -t 1.0675 -s 0 -d 2 -p cbr -e 210 -c 0 -i 18 -a 0 -x {0.0 3.0 18 ------- null}
h -t 1.0675 -s 0 -d 2 -p cbr -e 210 -c 0 -i 18 -a 0 -x {0.0 3.0 -1 ------- null}
r -t 1.069706 -s 2 -d 3 -p cbr -e 210 -c 0 -i 15 -a 0 -x {0.0 3.0 15 ------- null}
r -t 1.069836 -s 0 -d 2 -p cbr -e 210 -c 0 -i 18 -a 0 -x {0.0 3.0 18 ------- null}
+ -t 1.069836 -s 2 -d 3 -p cbr -e 210 -c 0 -i 18 -a 0 -x {0.0 3.0 18 ------- null}
- -t 1.069836 -s 2 -d 3 -p cbr -e 210 -c 0 -i 18 -a 0 -x {0.0 3.0 18 ------- null}
h -t 1.069836 -s 2 -d 3 -p cbr -e 210 -c 0 -i 18 -a 0 -x {0.0 3.0 -1 ------- null}
+ -t 1.07125 -s 0 -d 2 -p cbr -e 210 -c 0 -i 19 -a 0 -x {0.0 3.0 19 ------- null}
- -t 1.07125 -s 0 -d 2 -p cbr -e 210 -c 0 -i 19 -a 0 -x {0.0 3.0 19 ------- null}
h -t 1.07125 -s 0 -d 2 -p cbr -e 210 -c 0 -i 19 -a 0 -x {0.0 3.0 -1 ------- null}
r -t 1.073456 -s 2 -d 3 -p cbr -e 210 -c 0 -i 16 -a 0 -x {0.0 3.0 16 ------- null}
r -t 1.073586 -s 0 -d 2 -p cbr -e 210 -c 0 -i 19 -a 0 -x {0.0 3.0 19 ------- null}
+ -t 1.073586 -s 2 -d 3 -p cbr -e 210 -c 0 -i 19 -a 0 -x {0.0 3.0 19 ------- null}
- -t 1.073586 -s 2 -d 3 -p cbr -e 210 -c 0 -i 19 -a 0 -x {0.0 3.0 19 ------- null}
h -t 1.073586 -s 2 -d 3 -p cbr -e 210 -c 0 -i 19 -a 0 -x {0.0 3.0 -1 ------- null}
+ -t 1.075 -s 0 -d 2 -p cbr -e 210 -c 0 -i 20 -a 0 -x {0.0 3.0 20 ------- null}
- -t 1.075 -s 0 -d 2 -p cbr -e 210 -c 0 -i 20 -a 0 -x {0.0 3.0 20 ------- null}
h -t 1.075 -s 0 -d 2 -p cbr -e 210 -c 0 -i 20 -a 0 -x {0.0 3.0 -1 ------- null}
r -t 1.077206 -s 2 -d 3 -p cbr -e 210 -c 0 -i 17 -a 0 -x {0.0 3.0 17 ------- null}
r -t 1.077336 -s 0 -d 2 -p cbr -e 210 -c 0 -i 20 -a 0 -x {0.0 3.0 20 ------- null}
+ -t 1.077336 -s 2 -d 3 -p cbr -e 210 -c 0 -i 20 -a 0 -x {0.0 3.0 20 ------- null}
- -t 1.077336 -s 2 -d 3 -p cbr -e 210 -c 0 -i 20 -a 0 -x {0.0 3.0 20 ------- null}
h -t 1.077336 -s 2 -d 3 -p cbr -e 210 -c 0 -i 20 -a 0 -x {0.0 3.0 -1 ------- null}
+ -t 1.07875 -s 0 -d 2 -p cbr -e 210 -c 0 -i 21 -a 0 -x {0.0 3.0 21 ------- null}
- -t 1.07875 -s 0 -d 2 -p cbr -e 210 -c 0 -i 21 -a 0 -x {0.0 3.0 21 ------- null}
h -t 1.07875 -s 0 -d 2 -p cbr -e 210 -c 0 -i 21 -a 0 -x {0.0 3.0 -1 ------- null}
r -t 1.080956 -s 2 -d 3 -p cbr -e 210 -c 0 -i 18 -a 0 -x {0.0 3.0 18 ------- null}
r -t 1.081086 -s 0 -d 2 -p cbr -e 210 -c 0 -i 21 -a 0 -x {0.0 3.0 21 ------- null}
+ -t 1.081086 -s 2 -d 3 -p cbr -e 210 -c 0 -i 21 -a 0 -x {0.0 3.0 21 ------- null}
- -t 1.081086 -s 2 -d 3 -p cbr -e 210 -c 0 -i 21 -a 0 -x {0.0 3.0 21 ------- null}
h -t 1.081086 -s 2 -d 3 -p cbr -e 210 -c 0 -i 21 -a 0 -x {0.0 3.0 -1 ------- null}
+ -t 1.0825 -s 0 -d 2 -p cbr -e 210 -c 0 -i 22 -a 0 -x {0.0 3.0 22 ------- null}
- -t 1.0825 -s 0 -d 2 -p cbr -e 210 -c 0 -i 22 -a 0 -x {0.0 3.0 22 ------- null}
h -t 1.0825 -s 0 -d 2 -p cbr -e 210 -c 0 -i 22 -a 0 -x {0.0 3.0 -1 ------- null}
r -t 1.084706 -s 2 -d 3 -p cbr -e 210 -c 0 -i 19 -a 0 -x {0.0 3.0 19 ------- null}
r -t 1.084836 -s 0 -d 2 -p cbr -e 210 -c 0 -i 22 -a 0 -x {0.0 3.0 22 ------- null}
+ -t 1.084836 -s 2 -d 3 -p cbr -e 210 -c 0 -i 22 -a 0 -x {0.0 3.0 22 ------- null}
- -t 1.084836 -s 2 -d 3 -p cbr -e 210 -c 0 -i 22 -a 0 -x {0.0 3.0 22 ------- null}
h -t 1.084836 -s 2 -d 3 -p cbr -e 210 -c 0 -i 22 -a 0 -x {0.0 3.0 -1 ------- null}
+ -t 1.08625 -s 0 -d 2 -p cbr -e 210 -c 0 -i 23 -a 0 -x {0.0 3.0 23 ------- null}
- -t 1.08625 -s 0 -d 2 -p cbr -e 210 -c 0 -i 23 -a 0 -x {0.0 3.0 23 ------- null}
h -t 1.08625 -s 0 -d 2 -p cbr -e 210 -c 0 -i 23 -a 0 -x {0.0 3.0 -1 ------- null}
r -t 1.088456 -s 2 -d 3 -p cbr -e 210 -c 0 -i 20 -a 0 -x {0.0 3.0 20 ------- null}
r -t 1.088586 -s 0 -d 2 -p cbr -e 210 -c 0 -i 23 -a 0 -x {0.0 3.0 23 ------- null}
+ -t 1.088586 -s 2 -d 3 -p cbr -e 210 -c 0 -i 23 -a 0 -x {0.0 3.0 23 ------- null}
- -t 1.088586 -s 2 -d 3 -p cbr -e 210 -c 0 -i 23 -a 0 -x {0.0 3.0 23 ------- null}
h -t 1.088586 -s 2 -d 3 -p cbr -e 210 -c 0 -i 23 -a 0 -x {0.0 3.0 -1 ------- null}
+ -t 1.09 -s 0 -d 2 -p cbr -e 210 -c 0 -i 24 -a 0 -x {0.0 3.0 24 ------- null}
- -t 1.09 -s 0 -d 2 -p cbr -e 210 -c 0 -i 24 -a 0 -x {0.0 3.0 24 ------- null}
h -t 1.09 -s 0 -d 2 -p cbr -e 210 -c 0 -i 24 -a 0 -x {0.0 3.0 -1 ------- null}
r -t 1.092206 -s 2 -d 3 -p cbr -e 210 -c 0 -i 21 -a 0 -x {0.0 3.0 21 ------- null}
r -t 1.092336 -s 0 -d 2 -p cbr -e 210 -c 0 -i 24 -a 0 -x {0.0 3.0 24 ------- null}
+ -t 1.092336 -s 2 -d 3 -p cbr -e 210 -c 0 -i 24 -a 0 -x {0.0 3.0 24 ------- null}
- -t 1.092336 -s 2 -d 3 -p cbr -e 210 -c 0 -i 24 -a 0 -x {0.0 3.0 24 ------- null}
h -t 1.092336 -s 2 -d 3 -p cbr -e 210 -c 0 -i 24 -a 0 -x {0.0 3.0 -1 ------- null}
+ -t 1.09375 -s 0 -d 2 -p cbr -e 210 -c 0 -i 25 -a 0 -x {0.0 3.0 25 ------- null}
- -t 1.09375 -s 0 -d 2 -p cbr -e 210 -c 0 -i 25 -a 0 -x {0.0 3.0 25 ------- null}
h -t 1.09375 -s 0 -d 2 -p cbr -e 210 -c 0 -i 25 -a 0 -x {0.0 3.0 -1 ------- null}
r -t 1.095956 -s 2 -d 3 -p cbr -e 210 -c 0 -i 22 -a 0 -x {0.0 3.0 22 ------- null}
r -t 1.096086 -s 0 -d 2 -p cbr -e 210 -c 0 -i 25 -a 0 -x {0.0 3.0 25 ------- null}
+ -t 1.096086 -s 2 -d 3 -p cbr -e 210 -c 0 -i 25 -a 0 -x {0.0 3.0 25 ------- null}
- -t 1.096086 -s 2 -d 3 -p cbr -e 210 -c 0 -i 25 -a 0 -x {0.0 3.0 25 ------- null}
h -t 1.096086 -s 2 -d 3 -p cbr -e 210 -c 0 -i 25 -a 0 -x {0.0 3.0 -1 ------- null}
+ -t 1.0975 -s 0 -d 2 -p cbr -e 210 -c 0 -i 26 -a 0 -x {0.0 3.0 26 ------- null}
- -t 1.0975 -s 0 -d 2 -p cbr -e 210 -c 0 -i 26 -a 0 -x {0.0 3.0 26 ------- null}
h -t 1.0975 -s 0 -d 2 -p cbr -e 210 -c 0 -i 26 -a 0 -x {0.0 3.0 -1 ------- null}
r -t 1.099706 -s 2 -d 3 -p cbr -e 210 -c 0 -i 23 -a 0 -x {0.0 3.0 23 ------- null}
r -t 1.099836 -s 0 -d 2 -p cbr -e 210 -c 0 -i 26 -a 0 -x {0.0 3.0 26 ------- null}
+ -t 1.099836 -s 2 -d 3 -p cbr -e 210 -c 0 -i 26 -a 0 -x {0.0 3.0 26 ------- null}
- -t 1.099836 -s 2 -d 3 -p cbr -e 210 -c 0 -i 26 -a 0 -x {0.0 3.0 26 ------- null}
h -t 1.099836 -s 2 -d 3 -p cbr -e 210 -c 0 -i 26 -a 0 -x {0.0 3.0 -1 ------- null}
+ -t 1.10125 -s 0 -d 2 -p cbr -e 210 -c 0 -i 27 -a 0 -x {0.0 3.0 27 ------- null}
- -t 1.10125 -s 0 -d 2 -p cbr -e 210 -c 0 -i 27 -a 0 -x {0.0 3.0 27 ------- null}
h -t 1.10125 -s 0 -d 2 -p cbr -e 210 -c 0 -i 27 -a 0 -x {0.0 3.0 -1 ------- null}
r -t 1.103456 -s 2 -d 3 -p cbr -e 210 -c 0 -i 24 -a 0 -x {0.0 3.0 24 ------- null}
r -t 1.103586 -s 0 -d 2 -p cbr -e 210 -c 0 -i 27 -a 0 -x {0.0 3.0 27 ------- null}
+ -t 1.103586 -s 2 -d 3 -p cbr -e 210 -c 0 -i 27 -a 0 -x {0.0 3.0 27 ------- null}
- -t 1.103586 -s 2 -d 3 -p cbr -e 210 -c 0 -i 27 -a 0 -x {0.0 3.0 27 ------- null}
h -t 1.103586 -s 2 -d 3 -p cbr -e 210 -c 0 -i 27 -a 0 -x {0.0 3.0 -1 ------- null}
+ -t 1.105 -s 0 -d 2 -p cbr -e 210 -c 0 -i 28 -a 0 -x {0.0 3.0 28 ------- null}
- -t 1.105 -s 0 -d 2 -p cbr -e 210 -c 0 -i 28 -a 0 -x {0.0 3.0 28 ------- null}
h -t 1.105 -s 0 -d 2 -p cbr -e 210 -c 0 -i 28 -a 0 -x {0.0 3.0 -1 ------- null}
r -t 1.107206 -s 2 -d 3 -p cbr -e 210 -c 0 -i 25 -a 0 -x {0.0 3.0 25 ------- null}
r -t 1.107336 -s 0 -d 2 -p cbr -e 210 -c 0 -i 28 -a 0 -x {0.0 3.0 28 ------- null}
+ -t 1.107336 -s 2 -d 3 -p cbr -e 210 -c 0 -i 28 -a 0 -x {0.0 3.0 28 ------- null}
- -t 1.107336 -s 2 -d 3 -p cbr -e 210 -c 0 -i 28 -a 0 -x {0.0 3.0 28 ------- null}
h -t 1.107336 -s 2 -d 3 -p cbr -e 210 -c 0 -i 28 -a 0 -x {0.0 3.0 -1 ------- null}
+ -t 1.10875 -s 0 -d 2 -p cbr -e 210 -c 0 -i 29 -a 0 -x {0.0 3.0 29 ------- null}
- -t 1.10875 -s 0 -d 2 -p cbr -e 210 -c 0 -i 29 -a 0 -x {0.0 3.0 29 ------- null}
h -t 1.10875 -s 0 -d 2 -p cbr -e 210 -c 0 -i 29 -a 0 -x {0.0 3.0 -1 ------- null}
r -t 1.110956 -s 2 -d 3 -p cbr -e 210 -c 0 -i 26 -a 0 -x {0.0 3.0 26 ------- null}
r -t 1.111086 -s 0 -d 2 -p cbr -e 210 -c 0 -i 29 -a 0 -x {0.0 3.0 29 ------- null}
+ -t 1.111086 -s 2 -d 3 -p cbr -e 210 -c 0 -i 29 -a 0 -x {0.0 3.0 29 ------- null}
- -t 1.111086 -s 2 -d 3 -p cbr -e 210 -c 0 -i 29 -a 0 -x {0.0 3.0 29 ------- null}
h -t 1.111086 -s 2 -d 3 -p cbr -e 210 -c 0 -i 29 -a 0 -x {0.0 3.0 -1 ------- null}
+ -t 1.1125 -s 0 -d 2 -p cbr -e 210 -c 0 -i 30 -a 0 -x {0.0 3.0 30 ------- null}
- -t 1.1125 -s 0 -d 2 -p cbr -e 210 -c 0 -i 30 -a 0 -x {0.0 3.0 30 ------- null}
h -t 1.1125 -s 0 -d 2 -p cbr -e 210 -c 0 -i 30 -a 0 -x {0.0 3.0 -1 ------- null}
r -t 1.114706 -s 2 -d 3 -p cbr -e 210 -c 0 -i 27 -a 0 -x {0.0 3.0 27 ------- null}
r -t 1.114836 -s 0 -d 2 -p cbr -e 210 -c 0 -i 30 -a 0 -x {0.0 3.0 30 ------- null}
+ -t 1.114836 -s 2 -d 3 -p cbr -e 210 -c 0 -i 30 -a 0 -x {0.0 3.0 30 ------- null}
- -t 1.114836 -s 2 -d 3 -p cbr -e 210 -c 0 -i 30 -a 0 -x {0.0 3.0 30 ------- null}
h -t 1.114836 -s 2 -d 3 -p cbr -e 210 -c 0 -i 30 -a 0 -x {0.0 3.0 -1 ------- null}
+ -t 1.11625 -s 0 -d 2 -p cbr -e 210 -c 0 -i 31 -a 0 -x {0.0 3.0 31 ------- null}
- -t 1.11625 -s 0 -d 2 -p cbr -e 210 -c 0 -i 31 -a 0 -x {0.0 3.0 31 ------- null}
h -t 1.11625 -s 0 -d 2 -p cbr -e 210 -c 0 -i 31 -a 0 -x {0.0 3.0 -1 ------- null}
r -t 1.118456 -s 2 -d 3 -p cbr -e 210 -c 0 -i 28 -a 0 -x {0.0 3.0 28 ------- null}
r -t 1.118586 -s 0 -d 2 -p cbr -e 210 -c 0 -i 31 -a 0 -x {0.0 3.0 31 ------- null}
+ -t 1.118586 -s 2 -d 3 -p cbr -e 210 -c 0 -i 31 -a 0 -x {0.0 3.0 31 ------- null}
- -t 1.118586 -s 2 -d 3 -p cbr -e 210 -c 0 -i 31 -a 0 -x {0.0 3.0 31 ------- null}
h -t 1.118586 -s 2 -d 3 -p cbr -e 210 -c 0 -i 31 -a 0 -x {0.0 3.0 -1 ------- null}
+ -t 1.12 -s 0 -d 2 -p cbr -e 210 -c 0 -i 32 -a 0 -x {0.0 3.0 32 ------- null}
- -t 1.12 -s 0 -d 2 -p cbr -e 210 -c 0 -i 32 -a 0 -x {0.0 3.0 32 ------- null}
h -t 1.12 -s 0 -d 2 -p cbr -e 210 -c 0 -i 32 -a 0 -x {0.0 3.0 -1 ------- null}
r -t 1.122206 -s 2 -d 3 -p cbr -e 210 -c 0 -i 29 -a 0 -x {0.0 3.0 29 ------- null}
r -t 1.122336 -s 0 -d 2 -p cbr -e 210 -c 0 -i 32 -a 0 -x {0.0 3.0 32 ------- null}
+ -t 1.122336 -s 2 -d 3 -p cbr -e 210 -c 0 -i 32 -a 0 -x {0.0 3.0 32 ------- null}
- -t 1.122336 -s 2 -d 3 -p cbr -e 210 -c 0 -i 32 -a 0 -x {0.0 3.0 32 ------- null}
h -t 1.122336 -s 2 -d 3 -p cbr -e 210 -c 0 -i 32 -a 0 -x {0.0 3.0 -1 ------- null}
+ -t 1.12375 -s 0 -d 2 -p cbr -e 210 -c 0 -i 33 -a 0 -x {0.0 3.0 33 ------- null}
- -t 1.12375 -s 0 -d 2 -p cbr -e 210 -c 0 -i 33 -a 0 -x {0.0 3.0 33 ------- null}
h -t 1.12375 -s 0 -d 2 -p cbr -e 210 -c 0 -i 33 -a 0 -x {0.0 3.0 -1 ------- null}
r -t 1.125956 -s 2 -d 3 -p cbr -e 210 -c 0 -i 30 -a 0 -x {0.0 3.0 30 ------- null}
r -t 1.126086 -s 0 -d 2 -p cbr -e 210 -c 0 -i 33 -a 0 -x {0.0 3.0 33 ------- null}
+ -t 1.126086 -s 2 -d 3 -p cbr -e 210 -c 0 -i 33 -a 0 -x {0.0 3.0 33 ------- null}
- -t 1.126086 -s 2 -d 3 -p cbr -e 210 -c 0 -i 33 -a 0 -x {0.0 3.0 33 ------- null}
h -t 1.126086 -s 2 -d 3 -p cbr -e 210 -c 0 -i 33 -a 0 -x {0.0 3.0 -1 ------- null}
+ -t 1.1275 -s 0 -d 2 -p cbr -e 210 -c 0 -i 34 -a 0 -x {0.0 3.0 34 ------- null}
- -t 1.1275 -s 0 -d 2 -p cbr -e 210 -c 0 -i 34 -a 0 -x {0.0 3.0 34 ------- null}
h -t 1.1275 -s 0 -d 2 -p cbr -e 210 -c 0 -i 34 -a 0 -x {0.0 3.0 -1 ------- null}
r -t 1.129706 -s 2 -d 3 -p cbr -e 210 -c 0 -i 31 -a 0 -x {0.0 3.0 31 ------- null}
r -t 1.129836 -s 0 -d 2 -p cbr -e 210 -c 0 -i 34 -a 0 -x {0.0 3.0 34 ------- null}
+ -t 1.129836 -s 2 -d 3 -p cbr -e 210 -c 0 -i 34 -a 0 -x {0.0 3.0 34 ------- null}
- -t 1.129836 -s 2 -d 3 -p cbr -e 210 -c 0 -i 34 -a 0 -x {0.0 3.0 34 ------- null}
h -t 1.129836 -s 2 -d 3 -p cbr -e 210 -c 0 -i 34 -a 0 -x {0.0 3.0 -1 ------- null}
+ -t 1.13125 -s 0 -d 2 -p cbr -e 210 -c 0 -i 35 -a 0 -x {0.0 3.0 35 ------- null}
- -t 1.13125 -s 0 -d 2 -p cbr -e 210 -c 0 -i 35 -a 0 -x {0.0 3.0 35 ------- null}
h -t 1.13125 -s 0 -d 2 -p cbr -e 210 -c 0 -i 35 -a 0 -x {0.0 3.0 -1 ------- null}
r -t 1.133456 -s 2 -d 3 -p cbr -e 210 -c 0 -i 32 -a 0 -x {0.0 3.0 32 ------- null}
r -t 1.133586 -s 0 -d 2 -p cbr -e 210 -c 0 -i 35 -a 0 -x {0.0 3.0 35 ------- null}
+ -t 1.133586 -s 2 -d 3 -p cbr -e 210 -c 0 -i 35 -a 0 -x {0.0 3.0 35 ------- null}
- -t 1.133586 -s 2 -d 3 -p cbr -e 210 -c 0 -i 35 -a 0 -x {0.0 3.0 35 ------- null}
h -t 1.133586 -s 2 -d 3 -p cbr -e 210 -c 0 -i 35 -a 0 -x {0.0 3.0 -1 ------- null}
+ -t 1.135 -s 0 -d 2 -p cbr -e 210 -c 0 -i 36 -a 0 -x {0.0 3.0 36 ------- null}
- -t 1.135 -s 0 -d 2 -p cbr -e 210 -c 0 -i 36 -a 0 -x {0.0 3.0 36 ------- null}
h -t 1.135 -s 0 -d 2 -p cbr -e 210 -c 0 -i 36 -a 0 -x {0.0 3.0 -1 ------- null}
r -t 1.137206 -s 2 -d 3 -p cbr -e 210 -c 0 -i 33 -a 0 -x {0.0 3.0 33 ------- null}
r -t 1.137336 -s 0 -d 2 -p cbr -e 210 -c 0 -i 36 -a 0 -x {0.0 3.0 36 ------- null}
+ -t 1.137336 -s 2 -d 3 -p cbr -e 210 -c 0 -i 36 -a 0 -x {0.0 3.0 36 ------- null}
- -t 1.137336 -s 2 -d 3 -p cbr -e 210 -c 0 -i 36 -a 0 -x {0.0 3.0 36 ------- null}
h -t 1.137336 -s 2 -d 3 -p cbr -e 210 -c 0 -i 36 -a 0 -x {0.0 3.0 -1 ------- null}
+ -t 1.13875 -s 0 -d 2 -p cbr -e 210 -c 0 -i 37 -a 0 -x {0.0 3.0 37 ------- null}
- -t 1.13875 -s 0 -d 2 -p cbr -e 210 -c 0 -i 37 -a 0 -x {0.0 3.0 37 ------- null}
h -t 1.13875 -s 0 -d 2 -p cbr -e 210 -c 0 -i 37 -a 0 -x {0.0 3.0 -1 ------- null}
r -t 1.140956 -s 2 -d 3 -p cbr -e 210 -c 0 -i 34 -a 0 -x {0.0 3.0 34 ------- null}
r -t 1.141086 -s 0 -d 2 -p cbr -e 210 -c 0 -i 37 -a 0 -x {0.0 3.0 37 ------- null}
+ -t 1.141086 -s 2 -d 3 -p cbr -e 210 -c 0 -i 37 -a 0 -x {0.0 3.0 37 ------- null}
- -t 1.141086 -s 2 -d 3 -p cbr -e 210 -c 0 -i 37 -a 0 -x {0.0 3.0 37 ------- null}
h -t 1.141086 -s 2 -d 3 -p cbr -e 210 -c 0 -i 37 -a 0 -x {0.0 3.0 -1 ------- null}
+ -t 1.1425 -s 0 -d 2 -p cbr -e 210 -c 0 -i 38 -a 0 -x {0.0 3.0 38 ------- null}
- -t 1.1425 -s 0 -d 2 -p cbr -e 210 -c 0 -i 38 -a 0 -x {0.0 3.0 38 ------- null}
h -t 1.1425 -s 0 -d 2 -p cbr -e 210 -c 0 -i 38 -a 0 -x {0.0 3.0 -1 ------- null}
r -t 1.144706 -s 2 -d 3 -p cbr -e 210 -c 0 -i 35 -a 0 -x {0.0 3.0 35 ------- null}
r -t 1.144836 -s 0 -d 2 -p cbr -e 210 -c 0 -i 38 -a 0 -x {0.0 3.0 38 ------- null}
+ -t 1.144836 -s 2 -d 3 -p cbr -e 210 -c 0 -i 38 -a 0 -x {0.0 3.0 38 ------- null}
- -t 1.144836 -s 2 -d 3 -p cbr -e 210 -c 0 -i 38 -a 0 -x {0.0 3.0 38 ------- null}
h -t 1.144836 -s 2 -d 3 -p cbr -e 210 -c 0 -i 38 -a 0 -x {0.0 3.0 -1 ------- null}
+ -t 1.14625 -s 0 -d 2 -p cbr -e 210 -c 0 -i 39 -a 0 -x {0.0 3.0 39 ------- null}
- -t 1.14625 -s 0 -d 2 -p cbr -e 210 -c 0 -i 39 -a 0 -x {0.0 3.0 39 ------- null}
h -t 1.14625 -s 0 -d 2 -p cbr -e 210 -c 0 -i 39 -a 0 -x {0.0 3.0 -1 ------- null}
r -t 1.148456 -s 2 -d 3 -p cbr -e 210 -c 0 -i 36 -a 0 -x {0.0 3.0 36 ------- null}
r -t 1.148586 -s 0 -d 2 -p cbr -e 210 -c 0 -i 39 -a 0 -x {0.0 3.0 39 ------- null}
+ -t 1.148586 -s 2 -d 3 -p cbr -e 210 -c 0 -i 39 -a 0 -x {0.0 3.0 39 ------- null}
- -t 1.148586 -s 2 -d 3 -p cbr -e 210 -c 0 -i 39 -a 0 -x {0.0 3.0 39 ------- null}
h -t 1.148586 -s 2 -d 3 -p cbr -e 210 -c 0 -i 39 -a 0 -x {0.0 3.0 -1 ------- null}
+ -t 1.15 -s 0 -d 2 -p cbr -e 210 -c 0 -i 40 -a 0 -x {0.0 3.0 40 ------- null}
- -t 1.15 -s 0 -d 2 -p cbr -e 210 -c 0 -i 40 -a 0 -x {0.0 3.0 40 ------- null}
h -t 1.15 -s 0 -d 2 -p cbr -e 210 -c 0 -i 40 -a 0 -x {0.0 3.0 -1 ------- null}
r -t 1.152206 -s 2 -d 3 -p cbr -e 210 -c 0 -i 37 -a 0 -x {0.0 3.0 37 ------- null}
r -t 1.152336 -s 0 -d 2 -p cbr -e 210 -c 0 -i 40 -a 0 -x {0.0 3.0 40 ------- null}
+ -t 1.152336 -s 2 -d 3 -p cbr -e 210 -c 0 -i 40 -a 0 -x {0.0 3.0 40 ------- null}
- -t 1.152336 -s 2 -d 3 -p cbr -e 210 -c 0 -i 40 -a 0 -x {0.0 3.0 40 ------- null}
h -t 1.152336 -s 2 -d 3 -p cbr -e 210 -c 0 -i 40 -a 0 -x {0.0 3.0 -1 ------- null}
+ -t 1.15375 -s 0 -d 2 -p cbr -e 210 -c 0 -i 41 -a 0 -x {0.0 3.0 41 ------- null}
- -t 1.15375 -s 0 -d 2 -p cbr -e 210 -c 0 -i 41 -a 0 -x {0.0 3.0 41 ------- null}
h -t 1.15375 -s 0 -d 2 -p cbr -e 210 -c 0 -i 41 -a 0 -x {0.0 3.0 -1 ------- null}
r -t 1.155956 -s 2 -d 3 -p cbr -e 210 -c 0 -i 38 -a 0 -x {0.0 3.0 38 ------- null}
r -t 1.156086 -s 0 -d 2 -p cbr -e 210 -c 0 -i 41 -a 0 -x {0.0 3.0 41 ------- null}
+ -t 1.156086 -s 2 -d 3 -p cbr -e 210 -c 0 -i 41 -a 0 -x {0.0 3.0 41 ------- null}
- -t 1.156086 -s 2 -d 3 -p cbr -e 210 -c 0 -i 41 -a 0 -x {0.0 3.0 41 ------- null}
h -t 1.156086 -s 2 -d 3 -p cbr -e 210 -c 0 -i 41 -a 0 -x {0.0 3.0 -1 ------- null}
+ -t 1.1575 -s 0 -d 2 -p cbr -e 210 -c 0 -i 42 -a 0 -x {0.0 3.0 42 ------- null}
- -t 1.1575 -s 0 -d 2 -p cbr -e 210 -c 0 -i 42 -a 0 -x {0.0 3.0 42 ------- null}
h -t 1.1575 -s 0 -d 2 -p cbr -e 210 -c 0 -i 42 -a 0 -x {0.0 3.0 -1 ------- null}
r -t 1.159706 -s 2 -d 3 -p cbr -e 210 -c 0 -i 39 -a 0 -x {0.0 3.0 39 ------- null}
r -t 1.159836 -s 0 -d 2 -p cbr -e 210 -c 0 -i 42 -a 0 -x {0.0 3.0 42 ------- null}
+ -t 1.159836 -s 2 -d 3 -p cbr -e 210 -c 0 -i 42 -a 0 -x {0.0 3.0 42 ------- null}
- -t 1.159836 -s 2 -d 3 -p cbr -e 210 -c 0 -i 42 -a 0 -x {0.0 3.0 42 ------- null}
h -t 1.159836 -s 2 -d 3 -p cbr -e 210 -c 0 -i 42 -a 0 -x {0.0 3.0 -1 ------- null}
+ -t 1.16125 -s 0 -d 2 -p cbr -e 210 -c 0 -i 43 -a 0 -x {0.0 3.0 43 ------- null}
- -t 1.16125 -s 0 -d 2 -p cbr -e 210 -c 0 -i 43 -a 0 -x {0.0 3.0 43 ------- null}
h -t 1.16125 -s 0 -d 2 -p cbr -e 210 -c 0 -i 43 -a 0 -x {0.0 3.0 -1 ------- null}
r -t 1.163456 -s 2 -d 3 -p cbr -e 210 -c 0 -i 40 -a 0 -x {0.0 3.0 40 ------- null}
r -t 1.163586 -s 0 -d 2 -p cbr -e 210 -c 0 -i 43 -a 0 -x {0.0 3.0 43 ------- null}
+ -t 1.163586 -s 2 -d 3 -p cbr -e 210 -c 0 -i 43 -a 0 -x {0.0 3.0 43 ------- null}
- -t 1.163586 -s 2 -d 3 -p cbr -e 210 -c 0 -i 43 -a 0 -x {0.0 3.0 43 ------- null}
h -t 1.163586 -s 2 -d 3 -p cbr -e 210 -c 0 -i 43 -a 0 -x {0.0 3.0 -1 ------- null}
+ -t 1.165 -s 0 -d 2 -p cbr -e 210 -c 0 -i 44 -a 0 -x {0.0 3.0 44 ------- null}
- -t 1.165 -s 0 -d 2 -p cbr -e 210 -c 0 -i 44 -a 0 -x {0.0 3.0 44 ------- null}
h -t 1.165 -s 0 -d 2 -p cbr -e 210 -c 0 -i 44 -a 0 -x {0.0 3.0 -1 ------- null}
r -t 1.167206 -s 2 -d 3 -p cbr -e 210 -c 0 -i 41 -a 0 -x {0.0 3.0 41 ------- null}
r -t 1.167336 -s 0 -d 2 -p cbr -e 210 -c 0 -i 44 -a 0 -x {0.0 3.0 44 ------- null}
+ -t 1.167336 -s 2 -d 3 -p cbr -e 210 -c 0 -i 44 -a 0 -x {0.0 3.0 44 ------- null}
- -t 1.167336 -s 2 -d 3 -p cbr -e 210 -c 0 -i 44 -a 0 -x {0.0 3.0 44 ------- null}
h -t 1.167336 -s 2 -d 3 -p cbr -e 210 -c 0 -i 44 -a 0 -x {0.0 3.0 -1 ------- null}
+ -t 1.16875 -s 0 -d 2 -p cbr -e 210 -c 0 -i 45 -a 0 -x {0.0 3.0 45 ------- null}
- -t 1.16875 -s 0 -d 2 -p cbr -e 210 -c 0 -i 45 -a 0 -x {0.0 3.0 45 ------- null}
h -t 1.16875 -s 0 -d 2 -p cbr -e 210 -c 0 -i 45 -a 0 -x {0.0 3.0 -1 ------- null}