+ 1 0 2 cbr 210 ------- 0 0.0 3.0 0 0
- 1 0 2 cbr 210 ------- 0 0.0 3.0 0 0
r 1.002336 0 2 cbr 210 ------- 0 0.0 3.0 0 0
+ 1.002336 2 3 cbr 210 ------- 0 0.0 3.0 0 0
- 1.002336 2 3 cbr 210 ------- 0 0.0 3.0 0 0
+ 1.00375 0 2 cbr 210 ------- 0 0.0 3.0 1 1
- 1.00375 0 2 cbr 210 ------- 0 0.0 3.0 1 1
r 1.006086 0 2 cbr 210 ------- 0 0.0 3.0 1 1
+ 1.006086 2 3 cbr 210 ------- 0 0.0 3.0 1 1
- 1.006086 2 3 cbr 210 ------- 0 0.0 3.0 1 1
+ 1.0075 0 2 cbr 210 ------- 0 0.0 3.0 2 2
- 1.0075 0 2 cbr 210 ------- 0 0.0 3.0 2 2
r 1.009836 0 2 cbr 210 ------- 0 0.0 3.0 2 2
+ 1.009836 2 3 cbr 210 ------- 0 0.0 3.0 2 2
- 1.009836 2 3 cbr 210 ------- 0 0.0 3.0 2 2
+ 1.01125 0 2 cbr 210 ------- 0 0.0 3.0 3 3
- 1.01125 0 2 cbr 210 ------- 0 0.0 3.0 3 3
r 1.013456 2 3 cbr 210 ------- 0 0.0 3.0 0 0
r 1.013586 0 2 cbr 210 ------- 0 0.0 3.0 3 3
+ 1.013586 2 3 cbr 210 ------- 0 0.0 3.0 3 3
- 1.013586 2 3 cbr 210 ------- 0 0.0 3.0 3 3
+ 1.015 0 2 cbr 210 ------- 0 0.0 3.0 4 4
- 1.015 0 2 cbr 210 ------- 0 0.0 3.0 4 4
r 1.017206 2 3 cbr 210 ------- 0 0.0 3.0 1 1
r 1.017336 0 2 cbr 210 ------- 0 0.0 3.0 4 4
+ 1.017336 2 3 cbr 210 ------- 0 0.0 3.0 4 4
- 1.017336 2 3 cbr 210 ------- 0 0.0 3.0 4 4
+ 1.01875 0 2 cbr 210 ------- 0 0.0 3.0 5 5
- 1.01875 0 2 cbr 210 ------- 0 0.0 3.0 5 5
r 1.020956 2 3 cbr 210 ------- 0 0.0 3.0 2 2
r 1.021086 0 2 cbr 210 ------- 0 0.0 3.0 5 5
+ 1.021086 2 3 cbr 210 ------- 0 0.0 3.0 5 5
- 1.021086 2 3 cbr 210 ------- 0 0.0 3.0 5 5
+ 1.0225 0 2 cbr 210 ------- 0 0.0 3.0 6 6
- 1.0225 0 2 cbr 210 ------- 0 0.0 3.0 6 6
r 1.024706 2 3 cbr 210 ------- 0 0.0 3.0 3 3
r 1.024836 0 2 cbr 210 ------- 0 0.0 3.0 6 6
+ 1.024836 2 3 cbr 210 ------- 0 0.0 3.0 6 6
- 1.024836 2 3 cbr 210 ------- 0 0.0 3.0 6 6
+ 1.02625 0 2 cbr 210 ------- 0 0.0 3.0 7 7
- 1.02625 0 2 cbr 210 ------- 0 0.0 3.0 7 7
r 1.028456 2 3 cbr 210 ------- 0 0.0 3.0 4 4
r 1.028586 0 2 cbr 210 ------- 0 0.0 3.0 7 7
+ 1.028586 2 3 cbr 210 ------- 0 0.0 3.0 7 7
- 1.028586 2 3 cbr 210 ------- 0 0.0 3.0 7 7
+ 1.03 0 2 cbr 210 ------- 0 0.0 3.0 8 8
- 1.03 0 2 cbr 210 ------- 0 0.0 3.0 8 8
r 1.032206 2 3 cbr 210 ------- 0 0.0 3.0 5 5
r 1.032336 0 2 cbr 210 ------- 0 0.0 3.0 8 8
+ 1.032336 2 3 cbr 210 ------- 0 0.0 3.0 8 8
- 1.032336 2 3 cbr 210 ------- 0 0.0 3.0 8 8
+ 1.03375 0 2 cbr 210 ------- 0 0.0 3.0 9 9
- 1.03375 0 2 cbr 210 ------- 0 0.0 3.0 9 9
r 1.035956 2 3 cbr 210 ------- 0 0.0 3.0 6 6
r 1.036086 0 2 cbr 210 ------- 0 0.0 3.0 9 9
+ 1.036086 2 3 cbr 210 ------- 0 0.0 3.0 9 9
- 1.036086 2 3 cbr 210 ------- 0 0.0 3.0 9 9
+ 1.0375 0 2 cbr 210 ------- 0 0.0 3.0 10 10
- 1.0375 0 2 cbr 210 ------- 0 0.0 3.0 10 10
r 1.039706 2 3 cbr 210 ------- 0 0.0 3.0 7 7
r 1.039836 0 2 cbr 210 ------- 0 0.0 3.0 10 10
+ 1.039836 2 3 cbr 210 ------- 0 0.0 3.0 10 10
- 1.039836 2 3 cbr 210 ------- 0 0.0 3.0 10 10
+ 1.04125 0 2 cbr 210 ------- 0 0.0 3.0 11 11
- 1.04125 0 2 cbr 210 ------- 0 0.0 3.0 11 11
r 1.043456 2 3 cbr 210 ------- 0 0.0 3.0 8 8
r 1.043586 0 2 cbr 210 ------- 0 0.0 3.0 11 11
+ 1.043586 2 3 cbr 210 ------- 0 0.0 3.0 11 11
- 1.043586 2 3 cbr 210 ------- 0 0.0 3.0 11 11
+ 1.045 0 2 cbr 210 ------- 0 0.0 3.0 12 12
- 1.045 0 2 cbr 210 ------- 0 0.0 3.0 12 12
r 1.047206 2 3 cbr 210 ------- 0 0.0 3.0 9 9
r 1.047336 0 2 cbr 210 ------- 0 0.0 3.0 12 12
+ 1.047336 2 3 cbr 210 ------- 0 0.0 3.0 12 12
- 1.047336 2 3 cbr 210 ------- 0 0.0 3.0 12 12
+ 1.04875 0 2 cbr 210 ------- 0 0.0 3.0 13 13
- 1.04875 0 2 cbr 210 ------- 0 0.0 3.0 13 13
r 1.050956 2 3 cbr 210 ------- 0 0.0 3.0 10 10
r 1.051086 0 2 cbr 210 ------- 0 0.0 3.0 13 13
+ 1.051086 2 3 cbr 210 ------- 0 0.0 3.0 13 13
- 1.051086 2 3 cbr 210 ------- 0 0.0 3.0 13 13
+ 1.0525 0 2 cbr 210 ------- 0 0.0 3.0 14 14
- 1.0525 0 2 cbr 210 ------- 0 0.0 3.0 14 14
r 1.054706 2 3 cbr 210 ------- 0 0.0 3.0 11 11
r 1.054836 0 2 cbr 210 ------- 0 0.0 3.0 14 14
+ 1.054836 2 3 cbr 210 ------- 0 0.0 3.0 14 14
- 1.054836 2 3 cbr 210 ------- 0 0.0 3.0 14 14
+ 1.05625 0 2 cbr 210 ------- 0 0.0 3.0 15 15
- 1.05625 0 2 cbr 210 ------- 0 0.0 3.0 15 15
r 1.058456 2 3 cbr 210 ------- 0 0.0 3.0 12 12
r 1.058586 0 2 cbr 210 ------- 0 0.0 3.0 15 15
+ 1.058586 2 3 cbr 210 ------- 0 0.0 3.0 15 15
- 1.058586 2 3 cbr 210 ------- 0 0.0 3.0 15 15
+ 1.06 0 2 cbr 210 ------- 0 0.0 3.0 16 16
- 1.06 0 2 cbr 210 ------- 0 0.0 3.0 16 16
r 1.062206 2 3 cbr 210 ------- 0 0.0 3.0 13 13
r 1.062336 0 2 cbr 210 ------- 0 0.0 3.0 16 16
+ 1.062336 2 3 cbr 210 ------- 0 0.0 3.0 16 16
- 1.062336 2 3 cbr 210 ------- 0 0.0 3.0 16 16
+ 1.06375 0 2 cbr 210 ------- 0 0.0 3.0 17 17
- 1.06375 0 2 cbr 210 ------- 0 0.0 3.0 17 17
r 1.065956 2 3 cbr 210 ------- 0 0.0 3.0 14 14
r 1.066086 0 2 cbr 210 ------- 0 0.0 3.0 17 17
+ 1.066086 2 3 cbr 210 ------- 0 0.0 3.0 17 17
- 1.066086 2 3 cbr 210 ------- 0 0.0 3.0 17 17
+ 1.0675 0 2 cbr 210 ------- 0 0.0 3.0 18 18
- 1.0675 0 2 cbr 210 ------- 0 0.0 3.0 18 18
r 1.069706 2 3 cbr 210 ------- 0 0.0 3.0 15 15
r 1.069836 0 2 cbr 210 ------- 0 0.0 3.0 18 18
+ 1.069836 2 3 cbr 210 ------- 0 0.0 3.0 18 18
- 1.069836 2 3 cbr 210 ------- 0 0.0 3.0 18 18
+ 1.07125 0 2 cbr 210 ------- 0 0.0 3.0 19 19
- 1.07125 0 2 cbr 210 ------- 0 0.0 3.0 19 19
r 1.073456 2 3 cbr 210 ------- 0 0.0 3.0 16 16
r 1.073586 0 2 cbr 210 ------- 0 0.0 3.0 19 19
+ 1.073586 2 3 cbr 210 ------- 0 0.0 3.0 19 19
- 1.073586 2 3 cbr 210 ------- 0 0.0 3.0 19 19
+ 1.075 0 2 cbr 210 ------- 0 0.0 3.0 20 20
- 1.075 0 2 cbr 210 ------- 0 0.0 3.0 20 20
r 1.077206 2 3 cbr 210 ------- 0 0.0 3.0 17 17
r 1.077336 0 2 cbr 210 ------- 0 0.0 3.0 20 20
+ 1.077336 2 3 cbr 210 ------- 0 0.0 3.0 20 20
- 1.077336 2 3 cbr 210 ------- 0 0.0 3.0 20 20
+ 1.07875 0 2 cbr 210 ------- 0 0.0 3.0 21 21
- 1.07875 0 2 cbr 210 ------- 0 0.0 3.0 21 21
r 1.080956 2 3 cbr 210 ------- 0 0.0 3.0 18 18
r 1.081086 0 2 cbr 210 ------- 0 0.0 3.0 21 21
+ 1.081086 2 3 cbr 210 ------- 0 0.0 3.0 21 21
- 1.081086 2 3 cbr 210 ------- 0 0.0 3.0 21 21
+ 1.0825 0 2 cbr 210 ------- 0 0.0 3.0 22 22
- 1.0825 0 2 cbr 210 ------- 0 0.0 3.0 22 22
r 1.084706 2 3 cbr 210 ------- 0 0.0 3.0 19 19
r 1.084836 0 2 cbr 210 ------- 0 0.0 3.0 22 22
+ 1.084836 2 3 cbr 210 ------- 0 0.0 3.0 22 22
- 1.084836 2 3 cbr 210 ------- 0 0.0 3.0 22 22
+ 1.08625 0 2 cbr 210 ------- 0 0.0 3.0 23 23
- 1.08625 0 2 cbr 210 ------- 0 0.0 3.0 23 23
r 1.088456 2 3 cbr 210 ------- 0 0.0 3.0 20 20
r 1.088586 0 2 cbr 210 ------- 0 0.0 3.0 23 23
+ 1.088586 2 3 cbr 210 ------- 0 0.0 3.0 23 23
- 1.088586 2 3 cbr 210 ------- 0 0.0 3.0 23 23
+ 1.09 0 2 cbr 210 ------- 0 0.0 3.0 24 24
- 1.09 0 2 cbr 210 ------- 0 0.0 3.0 24 24
r 1.092206 2 3 cbr 210 ------- 0 0.0 3.0 21 21
r 1.092336 0 2 cbr 210 ------- 0 0.0 3.0 24 24
+ 1.092336 2 3 cbr 210 ------- 0 0.0 3.0 24 24
- 1.092336 2 3 cbr 210 ------- 0 0.0 3.0 24 24
+ 1.09375 0 2 cbr 210 ------- 0 0.0 3.0 25 25
- 1.09375 0 2 cbr 210 ------- 0 0.0 3.0 25 25
r 1.095956 2 3 cbr 210 ------- 0 0.0 3.0 22 22
r 1.096086 0 2 cbr 210 ------- 0 0.0 3.0 25 25
+ 1.096086 2 3 cbr 210 ------- 0 0.0 3.0 25 25
- 1.096086 2 3 cbr 210 ------- 0 0.0 3.0 25 25
+ 1.0975 0 2 cbr 210 ------- 0 0.0 3.0 26 26
- 1.0975 0 2 cbr 210 ------- 0 0.0 3.0 26 26
r 1.099706 2 3 cbr 210 ------- 0 0.0 3.0 23 23
r 1.099836 0 2 cbr 210 ------- 0 0.0 3.0 26 26
+ 1.099836 2 3 cbr 210 ------- 0 0.0 3.0 26 26
- 1.099836 2 3 cbr 210 ------- 0 0.0 3.0 26 26
+ 1.10125 0 2 cbr 210 ------- 0 0.0 3.0 27 27
- 1.10125 0 2 cbr 210 ------- 0 0.0 3.0 27 27
r 1.103456 2 3 cbr 210 ------- 0 0.0 3.0 24 24
r 1.103586 0 2 cbr 210 ------- 0 0.0 3.0 27 27
+ 1.103586 2 3 cbr 210 ------- 0 0.0 3.0 27 27
- 1.103586 2 3 cbr 210 ------- 0 0.0 3.0 27 27
+ 1.105 0 2 cbr 210 ------- 0 0.0 3.0 28 28
- 1.105 0 2 cbr 210 ------- 0 0.0 3.0 28 28
r 1.107206 2 3 cbr 210 ------- 0 0.0 3.0 25 25
r 1.107336 0 2 cbr 210 ------- 0 0.0 3.0 28 28
+ 1.107336 2 3 cbr 210 ------- 0 0.0 3.0 28 28
- 1.107336 2 3 cbr 210 ------- 0 0.0 3.0 28 28
+ 1.10875 0 2 cbr 210 ------- 0 0.0 3.0 29 29
- 1.10875 0 2 cbr 210 ------- 0 0.0 3.0 29 29
r 1.110956 2 3 cbr 210 ------- 0 0.0 3.0 26 26
r 1.111086 0 2 cbr 210 ------- 0 0.0 3.0 29 29
+ 1.111086 2 3 cbr 210 ------- 0 0.0 3.0 29 29
- 1.111086 2 3 cbr 210 ------- 0 0.0 3.0 29 29
+ 1.1125 0 2 cbr 210 ------- 0 0.0 3.0 30 30
- 1.1125 0 2 cbr 210 ------- 0 0.0 3.0 30 30
r 1.114706 2 3 cbr 210 ------- 0 0.0 3.0 27 27
r 1.114836 0 2 cbr 210 ------- 0 0.0 3.0 30 30
+ 1.114836 2 3 cbr 210 ------- 0 0.0 3.0 30 30
- 1.114836 2 3 cbr 210 ------- 0 0.0 3.0 30 30
+ 1.11625 0 2 cbr 210 ------- 0 0.0 3.0 31 31
- 1.11625 0 2 cbr 210 ------- 0 0.0 3.0 31 31
r 1.118456 2 3 cbr 210 ------- 0 0.0 3.0 28 28
r 1.118586 0 2 cbr 210 ------- 0 0.0 3.0 31 31
+ 1.118586 2 3 cbr 210 ------- 0 0.0 3.0 31 31
- 1.118586 2 3 cbr 210 ------- 0 0.0 3.0 31 31
+ 1.12 0 2 cbr 210 ------- 0 0.0 3.0 32 32
- 1.12 0 2 cbr 210 ------- 0 0.0 3.0 32 32
r 1.122206 2 3 cbr 210 ------- 0 0.0 3.0 29 29
r 1.122336 0 2 cbr 210 ------- 0 0.0 3.0 32 32
+ 1.122336 2 3 cbr 210 ------- 0 0.0 3.0 32 32
- 1.122336 2 3 cbr 210 ------- 0 0.0 3.0 32 32
+ 1.12375 0 2 cbr 210 ------- 0 0.0 3.0 33 33
- 1.12375 0 2 cbr 210 ------- 0 0.0 3.0 33 33
r 1.125956 2 3 cbr 210 ------- 0 0.0 3.0 30 30
r 1.126086 0 2 cbr 210 ------- 0 0.0 3.0 33 33
+ 1.126086 2 3 cbr 210 ------- 0 0.0 3.0 33 33
- 1.126086 2 3 cbr 210 ------- 0 0.0 3.0 33 33
+ 1.1275 0 2 cbr 210 ------- 0 0.0 3.0 34 34
- 1.1275 0 2 cbr 210 ------- 0 0.0 3.0 34 34
r 1.129706 2 3 cbr 210 ------- 0 0.0 3.0 31 31
r 1.129836 0 2 cbr 210 ------- 0 0.0 3.0 34 34
+ 1.129836 2 3 cbr 210 ------- 0 0.0 3.0 34 34
- 1.129836 2 3 cbr 210 ------- 0 0.0 3.0 34 34
+ 1.13125 0 2 cbr 210 ------- 0 0.0 3.0 35 35
- 1.13125 0 2 cbr 210 ------- 0 0.0 3.0 35 35
r 1.133456 2 3 cbr 210 ------- 0 0.0 3.0 32 32
r 1.133586 0 2 cbr 210 ------- 0 0.0 3.0 35 35
+ 1.133586 2 3 cbr 210 ------- 0 0.0 3.0 35 35
- 1.133586 2 3 cbr 210 ------- 0 0.0 3.0 35 35
+ 1.135 0 2 cbr 210 ------- 0 0.0 3.0 36 36
- 1.135 0 2 cbr 210 ------- 0 0.0 3.0 36 36
r 1.137206 2 3 cbr 210 ------- 0 0.0 3.0 33 33
r 1.137336 0 2 cbr 210 ------- 0 0.0 3.0 36 36
+ 1.137336 2 3 cbr 210 ------- 0 0.0 3.0 36 36
- 1.137336 2 3 cbr 210 ------- 0 0.0 3.0 36 36
+ 1.13875 0 2 cbr 210 ------- 0 0.0 3.0 37 37
- 1.13875 0 2 cbr 210 ------- 0 0.0 3.0 37 37
r 1.140956 2 3 cbr 210 ------- 0 0.0 3.0 34 34
r 1.141086 0 2 cbr 210 ------- 0 0.0 3.0 37 37
+ 1.141086 2 3 cbr 210 ------- 0 0.0 3.0 37 37
- 1.141086 2 3 cbr 210 ------- 0 0.0 3.0 37 37
+ 1.1425 0 2 cbr 210 ------- 0 0.0 3.0 38 38
- 1.1425 0 2 cbr 210 ------- 0 0.0 3.0 38 38
r 1.144706 2 3 cbr 210 ------- 0 0.0 3.0 35 35
r 1.144836 0 2 cbr 210 ------- 0 0.0 3.0 38 38
+ 1.144836 2 3 cbr 210 ------- 0 0.0 3.0 38 38
- 1.144836 2 3 cbr 210 ------- 0 0.0 3.0 38 38
+ 1.14625 0 2 cbr 210 ------- 0 0.0 3.0 39 39
- 1.14625 0 2 cbr 210 ------- 0 0.0 3.0 39 39
r 1.148456 2 3 cbr 210 ------- 0 0.0 3.0 36 36
r 1.148586 0 2 cbr 210 ------- 0 0.0 3.0 39 39
+ 1.148586 2 3 cbr 210 ------- 0 0.0 3.0 39 39
- 1.148586 2 3 cbr 210 ------- 0 0.0 3.0 39 39
+ 1.15 0 2 cbr 210 ------- 0 0.0 3.0 40 40
- 1.15 0 2 cbr 210 ------- 0 0.0 3.0 40 40
r 1.152206 2 3 cbr 210 ------- 0 0.0 3.0 37 37
r 1.152336 0 2 cbr 210 ------- 0 0.0 3.0 40 40
+ 1.152336 2 3 cbr 210 ------- 0 0.0 3.0 40 40
- 1.152336 2 3 cbr 210 ------- 0 0.0 3.0 40 40
+ 1.15375 0 2 cbr 210 ------- 0 0.0 3.0 41 41
- 1.15375 0 2 cbr 210 ------- 0 0.0 3.0 41 41
r 1.155956 2 3 cbr 210 ------- 0 0.0 3.0 38 38
r 1.156086 0 2 cbr 210 ------- 0 0.0 3.0 41 41
+ 1.156086 2 3 cbr 210 ------- 0 0.0 3.0 41 41
- 1.156086 2 3 cbr 210 ------- 0 0.0 3.0 41 41
+ 1.1575 0 2 cbr 210 ------- 0 0.0 3.0 42 42
- 1.1575 0 2 cbr 210 ------- 0 0.0 3.0 42 42
r 1.159706 2 3 cbr 210 ------- 0 0.0 3.0 39 39
r 1.159836 0 2 cbr 210 ------- 0 0.0 3.0 42 42
+ 1.159836 2 3 cbr 210 ------- 0 0.0 3.0 42 42
- 1.159836 2 3 cbr 210 ------- 0 0.0 3.0 42 42
+ 1.16125 0 2 cbr 210 ------- 0 0.0 3.0 43 43
- 1.16125 0 2 cbr 210 ------- 0 0.0 3.0 43 43
r 1.163456 2 3 cbr 210 ------- 0 0.0 3.0 40 40
r 1.163586 0 2 cbr 210 ------- 0 0.0 3.0 43 43
+ 1.163586 2 3 cbr 210 ------- 0 0.0 3.0 43 43
- 1.163586 2 3 cbr 210 ------- 0 0.0 3.0 43 43
+ 1.165 0 2 cbr 210 ------- 0 0.0 3.0 44 44
- 1.165 0 2 cbr 210 ------- 0 0.0 3.0 44 44
r 1.167206 2 3 cbr 210 ------- 0 0.0 3.0 41 41
r 1.167336 0 2 cbr 210 ------- 0 0.0 3.0 44 44
+ 1.167336 2 3 cbr 210 ------- 0 0.0 3.0 44 44
- 1.167336 2 3 cbr 210 ------- 0 0.0 3.0 44 44
+ 1.16875 0 2 cbr 210 ------- 0 0.0 3.0 45 45
- 1.16875 0 2 cbr 210 ------- 0 0.0 3.0 45 45
r 1.170956 2 3 cbr 210 ------- 0 0.0 3.0 42 42
r 1.171086 0 2 cbr 210 ------- 0 0.0 3.0 45 45
+ 1.171086 2 3 cbr 210 ------- 0 0.0 3.0 45 45
- 1.171086 2 3 cbr 210 ------- 0 0.0 3.0 45 45
+ 1.1725 0 2 cbr 210 ------- 0 0.0 3.0 46 46
- 1.1725 0 2 cbr 210 ------- 0 0.0 3.0 46 46
r 1.174706 2 3 cbr 210 ------- 0 0.0 3.0 43 43
r 1.174836 0 2 cbr 210 ------- 0 0.0 3.0 46 46
+ 1.174836 2 3 cbr 210 ------- 0 0.0 3.0 46 46
- 1.174836 2 3 cbr 210 ------- 0 0.0 3.0 46 46
+ 1.17625 0 2 cbr 210 ------- 0 0.0 3.0 47 47
- 1.17625 0 2 cbr 210 ------- 0 0.0 3.0 47 47
r 1.178456 2 3 cbr 210 ------- 0 0.0 3.0 44 44
r 1.178586 0 2 cbr 210 ------- 0 0.0 3.0 47 47
+ 1.178586 2 3 cbr 210 ------- 0 0.0 3.0 47 47
- 1.178586 2 3 cbr 210 ------- 0 0.0 3.0 47 47
+ 1.18 0 2 cbr 210 ------- 0 0.0 3.0 48 48
- 1.18 0 2 cbr 210 ------- 0 0.0 3.0 48 48
r 1.182206 2 3 cbr 210 ------- 0 0.0 3.0 45 45
r 1.182336 0 2 cbr 210 ------- 0 0.0 3.0 48 48
+ 1.182336 2 3 cbr 210 ------- 0 0.0 3.0 48 48
- 1.182336 2 3 cbr 210 ------- 0 0.0 3.0 48 48
+ 1.18375 0 2 cbr 210 ------- 0 0.0 3.0 49 49
- 1.18375 0 2 cbr 210 ------- 0 0.0 3.0 49 49
r 1.185956 2 3 cbr 210 ------- 0 0.0 3.0 46 46
r 1.186086 0 2 cbr 210 ------- 0 0.0 3.0 49 49
+ 1.186086 2 3 cbr 210 ------- 0 0.0 3.0 49 49
- 1.186086 2 3 cbr 210 ------- 0 0.0 3.0 49 49
+ 1.1875 0 2 cbr 210 ------- 0 0.0 3.0 50 50
- 1.1875 0 2 cbr 210 ------- 0 0.0 3.0 50 50
r 1.189706 2 3 cbr 210 ------- 0 0.0 3.0 47 47
r 1.189836 0 2 cbr 210 ------- 0 0.0 3.0 50 50
+ 1.189836 2 3 cbr 210 ------- 0 0.0 3.0 50 50
- 1.189836 2 3 cbr 210 ------- 0 0.0 3.0 50 50
+ 1.19125 0 2 cbr 210 ------- 0 0.0 3.0 51 51
- 1.19125 0 2 cbr 210 ------- 0 0.0 3.0 51 51
r 1.193456 2 3 cbr 210 ------- 0 0.0 3.0 48 48
r 1.193586 0 2 cbr 210 ------- 0 0.0 3.0 51 51
+ 1.193586 2 3 cbr 210 ------- 0 0.0 3.0 51 51
- 1.193586 2 3 cbr 210 ------- 0 0.0 3.0 51 51
+ 1.195 0 2 cbr 210 ------- 0 0.0 3.0 52 52
- 1.195 0 2 cbr 210 ------- 0 0.0 3.0 52 52
r 1.197206 2 3 cbr 210 ------- 0 0.0 3.0 49 49
r 1.197336 0 2 cbr 210 ------- 0 0.0 3.0 52 52
+ 1.197336 2 3 cbr 210 ------- 0 0.0 3.0 52 52
- 1.197336 2 3 cbr 210 ------- 0 0.0 3.0 52 52
+ 1.19875 0 2 cbr 210 ------- 0 0.0 3.0 53 53
- 1.19875 0 2 cbr 210 ------- 0 0.0 3.0 53 53
+ 1.2 1 2 tcp 40 ------- 1 1.0 3.1 0 54
- 1.2 1 2 tcp 40 ------- 1 1.0 3.1 0 54
r 1.200956 2 3 cbr 210 ------- 0 0.0 3.0 50 50
r 1.201086 0 2 cbr 210 ------- 0 0.0 3.0 53 53
+ 1.201086 2 3 cbr 210 ------- 0 0.0 3.0 53 53
- 1.201086 2 3 cbr 210 ------- 0 0.0 3.0 53 53
r 1.202064 1 2 tcp 40 ------- 1 1.0 3.1 0 54
+ 1.202064 2 3 tcp 40 ------- 1 1.0 3.1 0 54
- 1.202206 2 3 tcp 40 ------- 1 1.0 3.1 0 54
+ 1.2025 0 2 cbr 210 ------- 0 0.0 3.0 54 55
- 1.2025 0 2 cbr 210 ------- 0 0.0 3.0 54 55
r 1.204706 2 3 cbr 210 ------- 0 0.0 3.0 51 51
r 1.204836 0 2 cbr 210 ------- 0 0.0 3.0 54 55
+ 1.204836 2 3 cbr 210 ------- 0 0.0 3.0 54 55
- 1.204836 2 3 cbr 210 ------- 0 0.0 3.0 54 55
+ 1.20625 0 2 cbr 210 ------- 0 0.0 3.0 55 56
- 1.20625 0 2 cbr 210 ------- 0 0.0 3.0 55 56
r 1.208456 2 3 cbr 210 ------- 0 0.0 3.0 52 52
r 1.208586 0 2 cbr 210 ------- 0 0.0 3.0 55 56
+ 1.208586 2 3 cbr 210 ------- 0 0.0 3.0 55 56
- 1.208586 2 3 cbr 210 ------- 0 0.0 3.0 55 56
+ 1.21 0 2 cbr 210 ------- 0 0.0 3.0 56 57
- 1.21 0 2 cbr 210 ------- 0 0.0 3.0 56 57
r 1.212206 2 3 cbr 210 ------- 0 0.0 3.0 53 53
r 1.212336 0 2 cbr 210 ------- 0 0.0 3.0 56 57
+ 1.212336 2 3 cbr 210 ------- 0 0.0 3.0 56 57
- 1.212336 2 3 cbr 210 ------- 0 0.0 3.0 56 57
r 1.212419 2 3 tcp 40 ------- 1 1.0 3.1 0 54
+ 1.212419 3 2 ack 40 ------- 1 3.1 1.0 0 58
- 1.212419 3 2 ack 40 ------- 1 3.1 1.0 0 58
+ 1.21375 0 2 cbr 210 ------- 0 0.0 3.0 57 59
- 1.21375 0 2 cbr 210 ------- 0 0.0 3.0 57 59
r 1.215956 2 3 cbr 210 ------- 0 0.0 3.0 54 55
r 1.216086 0 2 cbr 210 ------- 0 0.0 3.0 57 59
+ 1.216086 2 3 cbr 210 ------- 0 0.0 3.0 57 59
- 1.216086 2 3 cbr 210 ------- 0 0.0 3.0 57 59
+ 1.2175 0 2 cbr 210 ------- 0 0.0 3.0 58 60
- 1.2175 0 2 cbr 210 ------- 0 0.0 3.0 58 60
r 1.219706 2 3 cbr 210 ------- 0 0.0 3.0 55 56
r 1.219836 0 2 cbr 210 ------- 0 0.0 3.0 58 60
+ 1.219836 2 3 cbr 210 ------- 0 0.0 3.0 58 60
- 1.219836 2 3 cbr 210 ------- 0 0.0 3.0 58 60
+ 1.22125 0 2 cbr 210 ------- 0 0.0 3.0 59 61
- 1.22125 0 2 cbr 210 ------- 0 0.0 3.0 59 61
r 1.222633 3 2 ack 40 ------- 1 3.1 1.0 0 58
+ 1.222633 2 1 ack 40 ------- 1 3.1 1.0 0 58
- 1.222633 2 1 ack 40 ------- 1 3.1 1.0 0 58
r 1.223456 2 3 cbr 210 ------- 0 0.0 3.0 56 57
r 1.223586 0 2 cbr 210 ------- 0 0.0 3.0 59 61
+ 1.223586 2 3 cbr 210 ------- 0 0.0 3.0 59 61
- 1.223586 2 3 cbr 210 ------- 0 0.0 3.0 59 61
r 1.224697 2 1 ack 40 ------- 1 3.1 1.0 0 58
+ 1.224697 1 2 tcp 1040 ------- 1 1.0 3.1 1 62
- 1.224697 1 2 tcp 1040 ------- 1 1.0 3.1 1 62
+ 1.224697 1 2 tcp 1040 ------- 1 1.0 3.1 2 63
+ 1.225 0 2 cbr 210 ------- 0 0.0 3.0 60 64
- 1.225 0 2 cbr 210 ------- 0 0.0 3.0 60 64
- 1.226361 1 2 tcp 1040 ------- 1 1.0 3.1 2 63
r 1.227206 2 3 cbr 210 ------- 0 0.0 3.0 57 59
r 1.227336 0 2 cbr 210 ------- 0 0.0 3.0 60 64
+ 1.227336 2 3 cbr 210 ------- 0 0.0 3.0 60 64
- 1.227336 2 3 cbr 210 ------- 0 0.0 3.0 60 64
r 1.228361 1 2 tcp 1040 ------- 1 1.0 3.1 1 62
+ 1.228361 2 3 tcp 1040 ------- 1 1.0 3.1 1 62
- 1.228456 2 3 tcp 1040 ------- 1 1.0 3.1 1 62
+ 1.22875 0 2 cbr 210 ------- 0 0.0 3.0 61 65
- 1.22875 0 2 cbr 210 ------- 0 0.0 3.0 61 65
r 1.230025 1 2 tcp 1040 ------- 1 1.0 3.1 2 63
+ 1.230025 2 3 tcp 1040 ------- 1 1.0 3.1 2 63
r 1.230956 2 3 cbr 210 ------- 0 0.0 3.0 58 60
r 1.231086 0 2 cbr 210 ------- 0 0.0 3.0 61 65
+ 1.231086 2 3 cbr 210 ------- 0 0.0 3.0 61 65
+ 1.2325 0 2 cbr 210 ------- 0 0.0 3.0 62 66
- 1.2325 0 2 cbr 210 ------- 0 0.0 3.0 62 66
- 1.234003 2 3 tcp 1040 ------- 1 1.0 3.1 2 63
r 1.234706 2 3 cbr 210 ------- 0 0.0 3.0 59 61
r 1.234836 0 2 cbr 210 ------- 0 0.0 3.0 62 66
+ 1.234836 2 3 cbr 210 ------- 0 0.0 3.0 62 66
+ 1.23625 0 2 cbr 210 ------- 0 0.0 3.0 63 67
- 1.23625 0 2 cbr 210 ------- 0 0.0 3.0 63 67
r 1.238456 2 3 cbr 210 ------- 0 0.0 3.0 60 64
r 1.238586 0 2 cbr 210 ------- 0 0.0 3.0 63 67
+ 1.238586 2 3 cbr 210 ------- 0 0.0 3.0 63 67
- 1.239549 2 3 cbr 210 ------- 0 0.0 3.0 61 65
+ 1.24 0 2 cbr 210 ------- 0 0.0 3.0 64 68
- 1.24 0 2 cbr 210 ------- 0 0.0 3.0 64 68
- 1.240669 2 3 cbr 210 ------- 0 0.0 3.0 62 66
- 1.241789 2 3 cbr 210 ------- 0 0.0 3.0 63 67
r 1.242336 0 2 cbr 210 ------- 0 0.0 3.0 64 68
+ 1.242336 2 3 cbr 210 ------- 0 0.0 3.0 64 68
- 1.242909 2 3 cbr 210 ------- 0 0.0 3.0 64 68
+ 1.24375 0 2 cbr 210 ------- 0 0.0 3.0 65 69
- 1.24375 0 2 cbr 210 ------- 0 0.0 3.0 65 69
r 1.244003 2 3 tcp 1040 ------- 1 1.0 3.1 1 62
+ 1.244003 3 2 ack 40 ------- 1 3.1 1.0 1 70
- 1.244003 3 2 ack 40 ------- 1 3.1 1.0 1 70
r 1.246086 0 2 cbr 210 ------- 0 0.0 3.0 65 69
+ 1.246086 2 3 cbr 210 ------- 0 0.0 3.0 65 69
- 1.246086 2 3 cbr 210 ------- 0 0.0 3.0 65 69
+ 1.2475 0 2 cbr 210 ------- 0 0.0 3.0 66 71
- 1.2475 0 2 cbr 210 ------- 0 0.0 3.0 66 71
r 1.249549 2 3 tcp 1040 ------- 1 1.0 3.1 2 63
+ 1.249549 3 2 ack 40 ------- 1 3.1 1.0 2 72
- 1.249549 3 2 ack 40 ------- 1 3.1 1.0 2 72
r 1.249836 0 2 cbr 210 ------- 0 0.0 3.0 66 71
+ 1.249836 2 3 cbr 210 ------- 0 0.0 3.0 66 71
- 1.249836 2 3 cbr 210 ------- 0 0.0 3.0 66 71
r 1.250669 2 3 cbr 210 ------- 0 0.0 3.0 61 65
+ 1.25125 0 2 cbr 210 ------- 0 0.0 3.0 67 73
- 1.25125 0 2 cbr 210 ------- 0 0.0 3.0 67 73
r 1.251789 2 3 cbr 210 ------- 0 0.0 3.0 62 66
r 1.252909 2 3 cbr 210 ------- 0 0.0 3.0 63 67
r 1.253586 0 2 cbr 210 ------- 0 0.0 3.0 67 73
+ 1.253586 2 3 cbr 210 ------- 0 0.0 3.0 67 73
- 1.253586 2 3 cbr 210 ------- 0 0.0 3.0 67 73
r 1.254029 2 3 cbr 210 ------- 0 0.0 3.0 64 68
r 1.254216 3 2 ack 40 ------- 1 3.1 1.0 1 70
+ 1.254216 2 1 ack 40 ------- 1 3.1 1.0 1 70
- 1.254216 2 1 ack 40 ------- 1 3.1 1.0 1 70
+ 1.255 0 2 cbr 210 ------- 0 0.0 3.0 68 74
- 1.255 0 2 cbr 210 ------- 0 0.0 3.0 68 74
r 1.25628 2 1 ack 40 ------- 1 3.1 1.0 1 70
+ 1.25628 1 2 tcp 1040 ------- 1 1.0 3.1 3 75
- 1.25628 1 2 tcp 1040 ------- 1 1.0 3.1 3 75
+ 1.25628 1 2 tcp 1040 ------- 1 1.0 3.1 4 76
r 1.257206 2 3 cbr 210 ------- 0 0.0 3.0 65 69
r 1.257336 0 2 cbr 210 ------- 0 0.0 3.0 68 74
+ 1.257336 2 3 cbr 210 ------- 0 0.0 3.0 68 74
- 1.257336 2 3 cbr 210 ------- 0 0.0 3.0 68 74
- 1.257944 1 2 tcp 1040 ------- 1 1.0 3.1 4 76
+ 1.25875 0 2 cbr 210 ------- 0 0.0 3.0 69 77
- 1.25875 0 2 cbr 210 ------- 0 0.0 3.0 69 77
r 1.259763 3 2 ack 40 ------- 1 3.1 1.0 2 72
+ 1.259763 2 1 ack 40 ------- 1 3.1 1.0 2 72
- 1.259763 2 1 ack 40 ------- 1 3.1 1.0 2 72
r 1.259944 1 2 tcp 1040 ------- 1 1.0 3.1 3 75
+ 1.259944 2 3 tcp 1040 ------- 1 1.0 3.1 3 75
- 1.259944 2 3 tcp 1040 ------- 1 1.0 3.1 3 75
r 1.260956 2 3 cbr 210 ------- 0 0.0 3.0 66 71
r 1.261086 0 2 cbr 210 ------- 0 0.0 3.0 69 77
+ 1.261086 2 3 cbr 210 ------- 0 0.0 3.0 69 77
r 1.261608 1 2 tcp 1040 ------- 1 1.0 3.1 4 76
+ 1.261608 2 3 tcp 1040 ------- 1 1.0 3.1 4 76
r 1.261827 2 1 ack 40 ------- 1 3.1 1.0 2 72
+ 1.261827 1 2 tcp 1040 ------- 1 1.0 3.1 5 78
- 1.261827 1 2 tcp 1040 ------- 1 1.0 3.1 5 78
+ 1.261827 1 2 tcp 1040 ------- 1 1.0 3.1 6 79
+ 1.2625 0 2 cbr 210 ------- 0 0.0 3.0 70 80
- 1.2625 0 2 cbr 210 ------- 0 0.0 3.0 70 80
- 1.263491 1 2 tcp 1040 ------- 1 1.0 3.1 6 79
r 1.264706 2 3 cbr 210 ------- 0 0.0 3.0 67 73
r 1.264836 0 2 cbr 210 ------- 0 0.0 3.0 70 80
+ 1.264836 2 3 cbr 210 ------- 0 0.0 3.0 70 80
- 1.265491 2 3 cbr 210 ------- 0 0.0 3.0 69 77
r 1.265491 1 2 tcp 1040 ------- 1 1.0 3.1 5 78
+ 1.265491 2 3 tcp 1040 ------- 1 1.0 3.1 5 78
+ 1.26625 0 2 cbr 210 ------- 0 0.0 3.0 71 81
- 1.26625 0 2 cbr 210 ------- 0 0.0 3.0 71 81
- 1.266611 2 3 tcp 1040 ------- 1 1.0 3.1 4 76
r 1.267155 1 2 tcp 1040 ------- 1 1.0 3.1 6 79
+ 1.267155 2 3 tcp 1040 ------- 1 1.0 3.1 6 79
r 1.268456 2 3 cbr 210 ------- 0 0.0 3.0 68 74
r 1.268586 0 2 cbr 210 ------- 0 0.0 3.0 71 81
+ 1.268586 2 3 cbr 210 ------- 0 0.0 3.0 71 81
+ 1.27 0 2 cbr 210 ------- 0 0.0 3.0 72 82
- 1.27 0 2 cbr 210 ------- 0 0.0 3.0 72 82
- 1.272157 2 3 cbr 210 ------- 0 0.0 3.0 70 80
r 1.272336 0 2 cbr 210 ------- 0 0.0 3.0 72 82
+ 1.272336 2 3 cbr 210 ------- 0 0.0 3.0 72 82
- 1.273277 2 3 tcp 1040 ------- 1 1.0 3.1 5 78
+ 1.27375 0 2 cbr 210 ------- 0 0.0 3.0 73 83
- 1.27375 0 2 cbr 210 ------- 0 0.0 3.0 73 83
r 1.275491 2 3 tcp 1040 ------- 1 1.0 3.1 3 75
+ 1.275491 3 2 ack 40 ------- 1 3.1 1.0 3 84
- 1.275491 3 2 ack 40 ------- 1 3.1 1.0 3 84
r 1.276086 0 2 cbr 210 ------- 0 0.0 3.0 73 83
+ 1.276086 2 3 cbr 210 ------- 0 0.0 3.0 73 83
r 1.276611 2 3 cbr 210 ------- 0 0.0 3.0 69 77
+ 1.2775 0 2 cbr 210 ------- 0 0.0 3.0 74 85
- 1.2775 0 2 cbr 210 ------- 0 0.0 3.0 74 85
- 1.278824 2 3 tcp 1040 ------- 1 1.0 3.1 6 79
r 1.279836 0 2 cbr 210 ------- 0 0.0 3.0 74 85
+ 1.279836 2 3 cbr 210 ------- 0 0.0 3.0 74 85
+ 1.28125 0 2 cbr 210 ------- 0 0.0 3.0 75 86
- 1.28125 0 2 cbr 210 ------- 0 0.0 3.0 75 86
r 1.282157 2 3 tcp 1040 ------- 1 1.0 3.1 4 76
+ 1.282157 3 2 ack 40 ------- 1 3.1 1.0 4 87
- 1.282157 3 2 ack 40 ------- 1 3.1 1.0 4 87
r 1.283277 2 3 cbr 210 ------- 0 0.0 3.0 70 80
r 1.283586 0 2 cbr 210 ------- 0 0.0 3.0 75 86
+ 1.283586 2 3 cbr 210 ------- 0 0.0 3.0 75 86
- 1.284371 2 3 cbr 210 ------- 0 0.0 3.0 71 81
+ 1.285 0 2 cbr 210 ------- 0 0.0 3.0 76 88
- 1.285 0 2 cbr 210 ------- 0 0.0 3.0 76 88
- 1.285491 2 3 cbr 210 ------- 0 0.0 3.0 72 82
r 1.285704 3 2 ack 40 ------- 1 3.1 1.0 3 84
+ 1.285704 2 1 ack 40 ------- 1 3.1 1.0 3 84
- 1.285704 2 1 ack 40 ------- 1 3.1 1.0 3 84
- 1.286611 2 3 cbr 210 ------- 0 0.0 3.0 73 83
r 1.287336 0 2 cbr 210 ------- 0 0.0 3.0 76 88
+ 1.287336 2 3 cbr 210 ------- 0 0.0 3.0 76 88
- 1.287731 2 3 cbr 210 ------- 0 0.0 3.0 74 85
r 1.287768 2 1 ack 40 ------- 1 3.1 1.0 3 84
+ 1.287768 1 2 tcp 1040 ------- 1 1.0 3.1 7 89
- 1.287768 1 2 tcp 1040 ------- 1 1.0 3.1 7 89
+ 1.287768 1 2 tcp 1040 ------- 1 1.0 3.1 8 90
+ 1.28875 0 2 cbr 210 ------- 0 0.0 3.0 77 91
- 1.28875 0 2 cbr 210 ------- 0 0.0 3.0 77 91
r 1.288824 2 3 tcp 1040 ------- 1 1.0 3.1 5 78
+ 1.288824 3 2 ack 40 ------- 1 3.1 1.0 5 92
- 1.288824 3 2 ack 40 ------- 1 3.1 1.0 5 92
- 1.288851 2 3 cbr 210 ------- 0 0.0 3.0 75 86
- 1.289432 1 2 tcp 1040 ------- 1 1.0 3.1 8 90
- 1.289971 2 3 cbr 210 ------- 0 0.0 3.0 76 88
r 1.291086 0 2 cbr 210 ------- 0 0.0 3.0 77 91
+ 1.291086 2 3 cbr 210 ------- 0 0.0 3.0 77 91
- 1.291091 2 3 cbr 210 ------- 0 0.0 3.0 77 91
r 1.291432 1 2 tcp 1040 ------- 1 1.0 3.1 7 89
+ 1.291432 2 3 tcp 1040 ------- 1 1.0 3.1 7 89
- 1.292211 2 3 tcp 1040 ------- 1 1.0 3.1 7 89
r 1.292371 3 2 ack 40 ------- 1 3.1 1.0 4 87
+ 1.292371 2 1 ack 40 ------- 1 3.1 1.0 4 87
- 1.292371 2 1 ack 40 ------- 1 3.1 1.0 4 87
+ 1.2925 0 2 cbr 210 ------- 0 0.0 3.0 78 93
- 1.2925 0 2 cbr 210 ------- 0 0.0 3.0 78 93
r 1.293096 1 2 tcp 1040 ------- 1 1.0 3.1 8 90
+ 1.293096 2 3 tcp 1040 ------- 1 1.0 3.1 8 90
r 1.294371 2 3 tcp 1040 ------- 1 1.0 3.1 6 79
+ 1.294371 3 2 ack 40 ------- 1 3.1 1.0 6 94
- 1.294371 3 2 ack 40 ------- 1 3.1 1.0 6 94
r 1.294435 2 1 ack 40 ------- 1 3.1 1.0 4 87
+ 1.294435 1 2 tcp 1040 ------- 1 1.0 3.1 9 95
- 1.294435 1 2 tcp 1040 ------- 1 1.0 3.1 9 95
+ 1.294435 1 2 tcp 1040 ------- 1 1.0 3.1 10 96
r 1.294836 0 2 cbr 210 ------- 0 0.0 3.0 78 93
+ 1.294836 2 3 cbr 210 ------- 0 0.0 3.0 78 93
r 1.295491 2 3 cbr 210 ------- 0 0.0 3.0 71 81
- 1.296099 1 2 tcp 1040 ------- 1 1.0 3.1 10 96
+ 1.29625 0 2 cbr 210 ------- 0 0.0 3.0 79 97
- 1.29625 0 2 cbr 210 ------- 0 0.0 3.0 79 97
r 1.296611 2 3 cbr 210 ------- 0 0.0 3.0 72 82
r 1.297731 2 3 cbr 210 ------- 0 0.0 3.0 73 83
- 1.297757 2 3 tcp 1040 ------- 1 1.0 3.1 8 90
r 1.298099 1 2 tcp 1040 ------- 1 1.0 3.1 9 95
+ 1.298099 2 3 tcp 1040 ------- 1 1.0 3.1 9 95
r 1.298586 0 2 cbr 210 ------- 0 0.0 3.0 79 97
+ 1.298586 2 3 cbr 210 ------- 0 0.0 3.0 79 97
r 1.298851 2 3 cbr 210 ------- 0 0.0 3.0 74 85
r 1.299037 3 2 ack 40 ------- 1 3.1 1.0 5 92
+ 1.299037 2 1 ack 40 ------- 1 3.1 1.0 5 92
- 1.299037 2 1 ack 40 ------- 1 3.1 1.0 5 92
r 1.299763 1 2 tcp 1040 ------- 1 1.0 3.1 10 96
+ 1.299763 2 3 tcp 1040 ------- 1 1.0 3.1 10 96
r 1.299971 2 3 cbr 210 ------- 0 0.0 3.0 75 86
+ 1.3 0 2 cbr 210 ------- 0 0.0 3.0 80 98
- 1.3 0 2 cbr 210 ------- 0 0.0 3.0 80 98
r 1.301091 2 3 cbr 210 ------- 0 0.0 3.0 76 88
r 1.301101 2 1 ack 40 ------- 1 3.1 1.0 5 92
+ 1.301101 1 2 tcp 1040 ------- 1 1.0 3.1 11 99
- 1.301101 1 2 tcp 1040 ------- 1 1.0 3.1 11 99
+ 1.301101 1 2 tcp 1040 ------- 1 1.0 3.1 12 100
r 1.302211 2 3 cbr 210 ------- 0 0.0 3.0 77 91
r 1.302336 0 2 cbr 210 ------- 0 0.0 3.0 80 98
+ 1.302336 2 3 cbr 210 ------- 0 0.0 3.0 80 98
- 1.302765 1 2 tcp 1040 ------- 1 1.0 3.1 12 100
- 1.303304 2 3 cbr 210 ------- 0 0.0 3.0 78 93
+ 1.30375 0 2 cbr 210 ------- 0 0.0 3.0 81 101
- 1.30375 0 2 cbr 210 ------- 0 0.0 3.0 81 101
- 1.304424 2 3 tcp 1040 ------- 1 1.0 3.1 9 95
r 1.304584 3 2 ack 40 ------- 1 3.1 1.0 6 94
+ 1.304584 2 1 ack 40 ------- 1 3.1 1.0 6 94
- 1.304584 2 1 ack 40 ------- 1 3.1 1.0 6 94
r 1.304765 1 2 tcp 1040 ------- 1 1.0 3.1 11 99
+ 1.304765 2 3 tcp 1040 ------- 1 1.0 3.1 11 99
r 1.306086 0 2 cbr 210 ------- 0 0.0 3.0 81 101
+ 1.306086 2 3 cbr 210 ------- 0 0.0 3.0 81 101
r 1.306429 1 2 tcp 1040 ------- 1 1.0 3.1 12 100
+ 1.306429 2 3 tcp 1040 ------- 1 1.0 3.1 12 100
r 1.306648 2 1 ack 40 ------- 1 3.1 1.0 6 94
+ 1.306648 1 2 tcp 1040 ------- 1 1.0 3.1 13 102
- 1.306648 1 2 tcp 1040 ------- 1 1.0 3.1 13 102
+ 1.306648 1 2 tcp 1040 ------- 1 1.0 3.1 14 103
+ 1.3075 0 2 cbr 210 ------- 0 0.0 3.0 82 104
- 1.3075 0 2 cbr 210 ------- 0 0.0 3.0 82 104
r 1.307757 2 3 tcp 1040 ------- 1 1.0 3.1 7 89
+ 1.307757 3 2 ack 40 ------- 1 3.1 1.0 7 105
- 1.307757 3 2 ack 40 ------- 1 3.1 1.0 7 105
- 1.308312 1 2 tcp 1040 ------- 1 1.0 3.1 14 103
r 1.309836 0 2 cbr 210 ------- 0 0.0 3.0 82 104
+ 1.309836 2 3 cbr 210 ------- 0 0.0 3.0 82 104
- 1.309971 2 3 cbr 210 ------- 0 0.0 3.0 79 97
r 1.310312 1 2 tcp 1040 ------- 1 1.0 3.1 13 102
+ 1.310312 2 3 tcp 1040 ------- 1 1.0 3.1 13 102
- 1.311091 2 3 tcp 1040 ------- 1 1.0 3.1 10 96
+ 1.31125 0 2 cbr 210 ------- 0 0.0 3.0 83 106
- 1.31125 0 2 cbr 210 ------- 0 0.0 3.0 83 106
r 1.311976 1 2 tcp 1040 ------- 1 1.0 3.1 14 103
+ 1.311976 2 3 tcp 1040 ------- 1 1.0 3.1 14 103
r 1.313304 2 3 tcp 1040 ------- 1 1.0 3.1 8 90
+ 1.313304 3 2 ack 40 ------- 1 3.1 1.0 8 107
- 1.313304 3 2 ack 40 ------- 1 3.1 1.0 8 107
r 1.313586 0 2 cbr 210 ------- 0 0.0 3.0 83 106
+ 1.313586 2 3 cbr 210 ------- 0 0.0 3.0 83 106
r 1.314424 2 3 cbr 210 ------- 0 0.0 3.0 78 93
+ 1.315 0 2 cbr 210 ------- 0 0.0 3.0 84 108
- 1.315 0 2 cbr 210 ------- 0 0.0 3.0 84 108
- 1.316637 2 3 cbr 210 ------- 0 0.0 3.0 80 98
r 1.317336 0 2 cbr 210 ------- 0 0.0 3.0 84 108
+ 1.317336 2 3 cbr 210 ------- 0 0.0 3.0 84 108
- 1.317757 2 3 tcp 1040 ------- 1 1.0 3.1 11 99
r 1.317971 3 2 ack 40 ------- 1 3.1 1.0 7 105
+ 1.317971 2 1 ack 40 ------- 1 3.1 1.0 7 105
- 1.317971 2 1 ack 40 ------- 1 3.1 1.0 7 105
+ 1.31875 0 2 cbr 210 ------- 0 0.0 3.0 85 109
- 1.31875 0 2 cbr 210 ------- 0 0.0 3.0 85 109
r 1.319971 2 3 tcp 1040 ------- 1 1.0 3.1 9 95
+ 1.319971 3 2 ack 40 ------- 1 3.1 1.0 9 110
- 1.319971 3 2 ack 40 ------- 1 3.1 1.0 9 110
r 1.320035 2 1 ack 40 ------- 1 3.1 1.0 7 105
+ 1.320035 1 2 tcp 1040 ------- 1 1.0 3.1 15 111
- 1.320035 1 2 tcp 1040 ------- 1 1.0 3.1 15 111
+ 1.320035 1 2 tcp 1040 ------- 1 1.0 3.1 16 112
r 1.321086 0 2 cbr 210 ------- 0 0.0 3.0 85 109
+ 1.321086 2 3 cbr 210 ------- 0 0.0 3.0 85 109
r 1.321091 2 3 cbr 210 ------- 0 0.0 3.0 79 97
- 1.321699 1 2 tcp 1040 ------- 1 1.0 3.1 16 112
+ 1.3225 0 2 cbr 210 ------- 0 0.0 3.0 86 113
- 1.3225 0 2 cbr 210 ------- 0 0.0 3.0 86 113
- 1.323304 2 3 cbr 210 ------- 0 0.0 3.0 81 101
r 1.323517 3 2 ack 40 ------- 1 3.1 1.0 8 107
+ 1.323517 2 1 ack 40 ------- 1 3.1 1.0 8 107
- 1.323517 2 1 ack 40 ------- 1 3.1 1.0 8 107